 Entering Gaussian System, Link 0=/work/home/gaus24/apprepo/gaussian/16-hy/app/g16/g16
 Input=/work/home/gaus24/AutoCalc/tasks/SJY_JKH/intmode/hr/huang-rhys.gjf
 Output=/work/home/gaus24/AutoCalc/tasks/SJY_JKH/intmode/hr/huang-rhys.log
 Initial command:
 /work/home/gaus24/apprepo/gaussian/16-hy/scripts/../app/g16/l1.exe "/work/home/gaus24/apprepo/gaussian/16-hy/scripts/../app/g16/scratch/Gau-28257.inp" -scrdir="/work/home/gaus24/apprepo/gaussian/16-hy/scripts/../app/g16/scratch/"
 Default is to use a total of  32 processors:
                               32 via shared-memory
                                1 via Linda
 Entering Link 1 = /work/home/gaus24/apprepo/gaussian/16-hy/scripts/../app/g16/l1.exe PID=     28258.
  
 Copyright (c) 1988,1990,1992,1993,1995,1998,2003,2009,2016,
            Gaussian, Inc.  All Rights Reserved.
  
 This is part of the Gaussian(R) 16 program.  It is based on
 the Gaussian(R) 09 system (copyright 2009, Gaussian, Inc.),
 the Gaussian(R) 03 system (copyright 2003, Gaussian, Inc.),
 the Gaussian(R) 98 system (copyright 1998, Gaussian, Inc.),
 the Gaussian(R) 94 system (copyright 1995, Gaussian, Inc.),
 the Gaussian 92(TM) system (copyright 1992, Gaussian, Inc.),
 the Gaussian 90(TM) system (copyright 1990, Gaussian, Inc.),
 the Gaussian 88(TM) system (copyright 1988, Gaussian, Inc.),
 the Gaussian 86(TM) system (copyright 1986, Carnegie Mellon
 University), and the Gaussian 82(TM) system (copyright 1983,
 Carnegie Mellon University). Gaussian is a federally registered
 trademark of Gaussian, Inc.
  
 This software contains proprietary and confidential information,
 including trade secrets, belonging to Gaussian, Inc.
  
 This software is provided under written license and may be
 used, copied, transmitted, or stored only in accord with that
 written license.
  
 The following legend is applicable only to US Government
 contracts under FAR:
  
                    RESTRICTED RIGHTS LEGEND
  
 Use, reproduction and disclosure by the US Government is
 subject to restrictions as set forth in subparagraphs (a)
 and (c) of the Commercial Computer Software - Restricted
 Rights clause in FAR 52.227-19.
  
 Gaussian, Inc.
 340 Quinnipiac St., Bldg. 40, Wallingford CT 06492
  
  
 ---------------------------------------------------------------
 Warning -- This program may not be used in any manner that
 competes with the business of Gaussian, Inc. or will provide
 assistance to any competitor of Gaussian, Inc.  The licensee
 of this program is prohibited from giving any competitor of
 Gaussian, Inc. access to this program.  By using this program,
 the user acknowledges that Gaussian, Inc. is engaged in the
 business of creating and licensing software in the field of
 computational chemistry and represents and warrants to the
 licensee that it is not a competitor of Gaussian, Inc. and that
 it will not use this program in any manner prohibited above.
 ---------------------------------------------------------------
  

 Cite this work as:
 Gaussian 16, Revision A.03,
 M. J. Frisch, G. W. Trucks, H. B. Schlegel, G. E. Scuseria, 
 M. A. Robb, J. R. Cheeseman, G. Scalmani, V. Barone, 
 G. A. Petersson, H. Nakatsuji, X. Li, M. Caricato, A. V. Marenich, 
 J. Bloino, B. G. Janesko, R. Gomperts, B. Mennucci, H. P. Hratchian, 
 J. V. Ortiz, A. F. Izmaylov, J. L. Sonnenberg, D. Williams-Young, 
 F. Ding, F. Lipparini, F. Egidi, J. Goings, B. Peng, A. Petrone, 
 T. Henderson, D. Ranasinghe, V. G. Zakrzewski, J. Gao, N. Rega, 
 G. Zheng, W. Liang, M. Hada, M. Ehara, K. Toyota, R. Fukuda, 
 J. Hasegawa, M. Ishida, T. Nakajima, Y. Honda, O. Kitao, H. Nakai, 
 T. Vreven, K. Throssell, J. A. Montgomery, Jr., J. E. Peralta, 
 F. Ogliaro, M. J. Bearpark, J. J. Heyd, E. N. Brothers, K. N. Kudin, 
 V. N. Staroverov, T. A. Keith, R. Kobayashi, J. Normand, 
 K. Raghavachari, A. P. Rendell, J. C. Burant, S. S. Iyengar, 
 J. Tomasi, M. Cossi, J. M. Millam, M. Klene, C. Adamo, R. Cammi, 
 J. W. Ochterski, R. L. Martin, K. Morokuma, O. Farkas, 
 J. B. Foresman, and D. J. Fox, Gaussian, Inc., Wallingford CT, 2016.
 
 ******************************************
 Gaussian 16:  ES64L-G16RevA.03 25-Dec-2016
                27-Nov-2025 
 ******************************************
 %oldchk=opt_SJY_JKH.chk
 Copying data from "opt_SJY_JKH.chk" to current chk file "/work/home/gaus24/apprepo/gaussian/16-hy/scripts/../app/g16/scratch/Gau-28258.chk"
 IOpt=  2 FromEx=T IUOpen= 4 IOptOp= 5 NList=   0 IFRang= 0 IUIn= 4 IUOut= 2.
 ----------------------------------------------------------------
 #p geom=allcheck freq(readfc,fcht,readfcht,intmode) IOp(7/75=-1)
 ----------------------------------------------------------------
 1/18=20,29=7,38=1/1,3;
 2/9=110,12=2,40=1/2;
 7/8=21,25=11,71=20,75=-1,121=1/16,18;
 99/5=5/99;
 Leave Link    1 at Thu Nov 27 20:53:24 2025, MaxMem= 12884901888 cpu:               5.7 elap:               0.2
 (Enter /work/home/gaus24/apprepo/gaussian/16-hy/scripts/../app/g16/l101.exe)
 Structure from the checkpoint file:  "/work/home/gaus24/apprepo/gaussian/16-hy/scripts/../app/g16/scratch/Gau-28258.chk"
 ---
 opt
 ---
 Charge =  0 Multiplicity = 1
 Redundant internal coordinates found in file.  (old form).
 C,0,5.4555655947,-0.1411183145,0.692284698
 N,0,4.5560162587,0.8872843184,0.2156248165
 C,0,5.091872137,2.1479829152,-0.2516676585
 C,0,3.2105796934,0.6687170632,0.2095880753
 C,0,2.3039729302,1.659706204,-0.2513828398
 C,0,0.9430372864,1.434164947,-0.2558544155
 C,0,0.3903347176,0.2196766766,0.1930244407
 C,0,1.2901896025,-0.7591586205,0.6487317881
 C,0,2.6570717599,-0.5541210273,0.6618749422
 C,0,-1.0303733327,-0.0592991486,0.205873671
 C,0,-2.0313006659,0.758367637,-0.1917748866
 C,0,-3.4213639617,0.3862282701,-0.13940404
 C,0,-4.4443441521,1.20308608,-0.5380062882
 C,0,-5.8098910347,0.8124699793,-0.4764973787
 C,0,-6.0529507044,-0.5345253861,0.0465750349
 C,0,-7.3194702377,-1.1358634956,0.1995825121
 C,0,-7.4553460535,-2.4155668513,0.7031498547
 C,0,-6.3246696971,-3.1518776897,1.0769473855
 C,0,-5.0665825457,-2.5971730953,0.9420570653
 C,0,-4.9399296739,-1.3044930946,0.4326475798
 O,0,-3.6701507398,-0.8404721057,0.3349214532
 C,0,-6.7905583546,1.7145127551,-0.9063824496
 C,0,-8.1970186384,1.5052672509,-0.9203825334
 N,0,-9.3501612422,1.3979052907,-0.957736941
 C,0,-6.4012297677,2.9975203827,-1.3936218852
 N,0,-6.0868380401,4.0395280728,-1.7895015715
 H,0,5.2610895943,-0.4019570037,1.7461586979
 H,0,6.4872267424,0.2188412164,0.6190077741
 H,0,5.3757314119,-1.0659430377,0.0966676646
 H,0,6.183690077,2.1287305908,-0.1684234282
 H,0,4.7215771919,2.9992561453,0.3437731542
 H,0,4.8359226423,2.3384652,-1.3073523747
 H,0,2.6755402103,2.6173870057,-0.6098053558
 H,0,0.2894600137,2.2289004757,-0.6204540983
 H,0,0.8970595525,-1.7147172937,1.0048742894
 H,0,3.3033734648,-1.3497088272,1.0264138479
 H,0,-1.3110318316,-1.0471142016,0.5824532906
 H,0,-1.8358225779,1.7589428288,-0.5793473664
 H,0,-4.1775644757,2.1885355864,-0.9144049414
 H,0,-8.2156910069,-0.5917235782,-0.0808660566
 H,0,-8.4503767386,-2.8498622261,0.808066942
 H,0,-6.432601899,-4.1624104775,1.4745576068
 H,0,-4.1617805933,-3.1374254311,1.2215589267
 Recover connectivity data from disk.
 ITRead=  0  0  0  0  0  0  0  0  0  0  0  0  0  0  0  0  0  0  0  0
 ITRead=  0  0  0  0  0  0  0  0  0  0  0  0  0  0  0  0  0  0  0  0
 ITRead=  0  0  0
 MicOpt= -1 -1 -1 -1 -1 -1 -1 -1 -1 -1 -1 -1 -1 -1 -1 -1 -1 -1 -1 -1
 MicOpt= -1 -1 -1 -1 -1 -1 -1 -1 -1 -1 -1 -1 -1 -1 -1 -1 -1 -1 -1 -1
 MicOpt= -1 -1 -1
 NAtoms=     43 NQM=       43 NQMF=       0 NMMI=      0 NMMIF=      0
                NMic=       0 NMicF=      0.
                    Isotopes and Nuclear Properties:
 (Nuclear quadrupole moments (NQMom) in fm**2, nuclear magnetic moments (NMagM)
  in nuclear magnetons)

  Atom         1           2           3           4           5           6           7           8           9          10
 IAtWgt=          12          14          12          12          12          12          12          12          12          12
 AtmWgt=  12.0000000  14.0030740  12.0000000  12.0000000  12.0000000  12.0000000  12.0000000  12.0000000  12.0000000  12.0000000
 NucSpn=           0           2           0           0           0           0           0           0           0           0
 AtZEff=   3.6000000   4.5500000   3.6000000   3.6000000   3.6000000   3.6000000   3.6000000   3.6000000   3.6000000   3.6000000
 NQMom=    0.0000000   2.0440000   0.0000000   0.0000000   0.0000000   0.0000000   0.0000000   0.0000000   0.0000000   0.0000000
 NMagM=    0.0000000   0.4037610   0.0000000   0.0000000   0.0000000   0.0000000   0.0000000   0.0000000   0.0000000   0.0000000
 AtZNuc=   6.0000000   7.0000000   6.0000000   6.0000000   6.0000000   6.0000000   6.0000000   6.0000000   6.0000000   6.0000000

  Atom        11          12          13          14          15          16          17          18          19          20
 IAtWgt=          12          12          12          12          12          12          12          12          12          12
 AtmWgt=  12.0000000  12.0000000  12.0000000  12.0000000  12.0000000  12.0000000  12.0000000  12.0000000  12.0000000  12.0000000
 NucSpn=           0           0           0           0           0           0           0           0           0           0
 AtZEff=   3.6000000   3.6000000   3.6000000   3.6000000   3.6000000   3.6000000   3.6000000   3.6000000   3.6000000   3.6000000
 NQMom=    0.0000000   0.0000000   0.0000000   0.0000000   0.0000000   0.0000000   0.0000000   0.0000000   0.0000000   0.0000000
 NMagM=    0.0000000   0.0000000   0.0000000   0.0000000   0.0000000   0.0000000   0.0000000   0.0000000   0.0000000   0.0000000
 AtZNuc=   6.0000000   6.0000000   6.0000000   6.0000000   6.0000000   6.0000000   6.0000000   6.0000000   6.0000000   6.0000000

  Atom        21          22          23          24          25          26          27          28          29          30
 IAtWgt=          16          12          12          14          12          14           1           1           1           1
 AtmWgt=  15.9949146  12.0000000  12.0000000  14.0030740  12.0000000  14.0030740   1.0078250   1.0078250   1.0078250   1.0078250
 NucSpn=           0           0           0           2           0           2           1           1           1           1
 AtZEff=   5.6000000   3.6000000   3.6000000   4.5500000   3.6000000   4.5500000   1.0000000   1.0000000   1.0000000   1.0000000
 NQMom=    0.0000000   0.0000000   0.0000000   2.0440000   0.0000000   2.0440000   0.0000000   0.0000000   0.0000000   0.0000000
 NMagM=    0.0000000   0.0000000   0.0000000   0.4037610   0.0000000   0.4037610   2.7928460   2.7928460   2.7928460   2.7928460
 AtZNuc=   8.0000000   6.0000000   6.0000000   7.0000000   6.0000000   7.0000000   1.0000000   1.0000000   1.0000000   1.0000000

  Atom        31          32          33          34          35          36          37          38          39          40
 IAtWgt=           1           1           1           1           1           1           1           1           1           1
 AtmWgt=   1.0078250   1.0078250   1.0078250   1.0078250   1.0078250   1.0078250   1.0078250   1.0078250   1.0078250   1.0078250
 NucSpn=           1           1           1           1           1           1           1           1           1           1
 AtZEff=   1.0000000   1.0000000   1.0000000   1.0000000   1.0000000   1.0000000   1.0000000   1.0000000   1.0000000   1.0000000
 NQMom=    0.0000000   0.0000000   0.0000000   0.0000000   0.0000000   0.0000000   0.0000000   0.0000000   0.0000000   0.0000000
 NMagM=    2.7928460   2.7928460   2.7928460   2.7928460   2.7928460   2.7928460   2.7928460   2.7928460   2.7928460   2.7928460
 AtZNuc=   1.0000000   1.0000000   1.0000000   1.0000000   1.0000000   1.0000000   1.0000000   1.0000000   1.0000000   1.0000000

  Atom        41          42          43
 IAtWgt=           1           1           1
 AtmWgt=   1.0078250   1.0078250   1.0078250
 NucSpn=           1           1           1
 AtZEff=   1.0000000   1.0000000   1.0000000
 NQMom=    0.0000000   0.0000000   0.0000000
 NMagM=    2.7928460   2.7928460   2.7928460
 AtZNuc=   1.0000000   1.0000000   1.0000000
 Leave Link  101 at Thu Nov 27 20:53:25 2025, MaxMem= 12884901888 cpu:              13.5 elap:               0.4
 (Enter /work/home/gaus24/apprepo/gaussian/16-hy/scripts/../app/g16/l103.exe)

 GradGradGradGradGradGradGradGradGradGradGradGradGradGradGradGradGradGrad
 Berny optimization.
 Initialization pass.
                           ----------------------------
                           !    Initial Parameters    !
                           ! (Angstroms and Degrees)  !
 --------------------------                            --------------------------
 ! Name  Definition              Value          Derivative Info.                !
 --------------------------------------------------------------------------------
 ! R1    R(1,2)                  1.4471         estimate D2E/DX2                !
 ! R2    R(1,27)                 1.103          estimate D2E/DX2                !
 ! R3    R(1,28)                 1.0951         estimate D2E/DX2                !
 ! R4    R(1,29)                 1.1029         estimate D2E/DX2                !
 ! R5    R(2,3)                  1.4474         estimate D2E/DX2                !
 ! R6    R(2,4)                  1.3631         estimate D2E/DX2                !
 ! R7    R(3,30)                 1.0952         estimate D2E/DX2                !
 ! R8    R(3,31)                 1.1029         estimate D2E/DX2                !
 ! R9    R(3,32)                 1.1028         estimate D2E/DX2                !
 ! R10   R(4,5)                  1.42           estimate D2E/DX2                !
 ! R11   R(4,9)                  1.4164         estimate D2E/DX2                !
 ! R12   R(5,6)                  1.3795         estimate D2E/DX2                !
 ! R13   R(5,33)                 1.088          estimate D2E/DX2                !
 ! R14   R(6,7)                  1.4078         estimate D2E/DX2                !
 ! R15   R(6,34)                 1.0917         estimate D2E/DX2                !
 ! R16   R(7,8)                  1.4055         estimate D2E/DX2                !
 ! R17   R(7,10)                 1.4479         estimate D2E/DX2                !
 ! R18   R(8,9)                  1.3822         estimate D2E/DX2                !
 ! R19   R(8,35)                 1.0929         estimate D2E/DX2                !
 ! R20   R(9,36)                 1.0879         estimate D2E/DX2                !
 ! R21   R(10,11)                1.3522         estimate D2E/DX2                !
 ! R22   R(10,37)                1.0938         estimate D2E/DX2                !
 ! R23   R(11,12)                1.44           estimate D2E/DX2                !
 ! R24   R(11,38)                1.0907         estimate D2E/DX2                !
 ! R25   R(12,13)                1.3684         estimate D2E/DX2                !
 ! R26   R(12,21)                1.3385         estimate D2E/DX2                !
 ! R27   R(13,14)                1.4216         estimate D2E/DX2                !
 ! R28   R(13,39)                1.0881         estimate D2E/DX2                !
 ! R29   R(14,15)                1.4653         estimate D2E/DX2                !
 ! R30   R(14,22)                1.4001         estimate D2E/DX2                !
 ! R31   R(15,16)                1.4104         estimate D2E/DX2                !
 ! R32   R(15,20)                1.4074         estimate D2E/DX2                !
 ! R33   R(16,17)                1.3819         estimate D2E/DX2                !
 ! R34   R(16,40)                1.0853         estimate D2E/DX2                !
 ! R35   R(17,18)                1.4001         estimate D2E/DX2                !
 ! R36   R(17,41)                1.0907         estimate D2E/DX2                !
 ! R37   R(18,19)                1.3815         estimate D2E/DX2                !
 ! R38   R(18,42)                1.0913         estimate D2E/DX2                !
 ! R39   R(19,20)                1.3952         estimate D2E/DX2                !
 ! R40   R(19,43)                1.0903         estimate D2E/DX2                !
 ! R41   R(20,21)                1.3554         estimate D2E/DX2                !
 ! R42   R(22,23)                1.422          estimate D2E/DX2                !
 ! R43   R(22,25)                1.4266         estimate D2E/DX2                !
 ! R44   R(23,24)                1.1587         estimate D2E/DX2                !
 ! R45   R(25,26)                1.1582         estimate D2E/DX2                !
 ! A1    A(2,1,27)             111.9131         estimate D2E/DX2                !
 ! A2    A(2,1,28)             109.2676         estimate D2E/DX2                !
 ! A3    A(2,1,29)             111.9032         estimate D2E/DX2                !
 ! A4    A(27,1,28)            107.9253         estimate D2E/DX2                !
 ! A5    A(27,1,29)            107.7545         estimate D2E/DX2                !
 ! A6    A(28,1,29)            107.9192         estimate D2E/DX2                !
 ! A7    A(1,2,3)              119.6846         estimate D2E/DX2                !
 ! A8    A(1,2,4)              120.0721         estimate D2E/DX2                !
 ! A9    A(3,2,4)              120.2432         estimate D2E/DX2                !
 ! A10   A(2,3,30)             109.2231         estimate D2E/DX2                !
 ! A11   A(2,3,31)             111.9442         estimate D2E/DX2                !
 ! A12   A(2,3,32)             111.9361         estimate D2E/DX2                !
 ! A13   A(30,3,31)            107.8943         estimate D2E/DX2                !
 ! A14   A(30,3,32)            107.8888         estimate D2E/DX2                !
 ! A15   A(31,3,32)            107.7927         estimate D2E/DX2                !
 ! A16   A(2,4,5)              121.3129         estimate D2E/DX2                !
 ! A17   A(2,4,9)              121.5159         estimate D2E/DX2                !
 ! A18   A(5,4,9)              117.1713         estimate D2E/DX2                !
 ! A19   A(4,5,6)              121.118          estimate D2E/DX2                !
 ! A20   A(4,5,33)             120.2114         estimate D2E/DX2                !
 ! A21   A(6,5,33)             118.6706         estimate D2E/DX2                !
 ! A22   A(5,6,7)              121.8245         estimate D2E/DX2                !
 ! A23   A(5,6,34)             118.2099         estimate D2E/DX2                !
 ! A24   A(7,6,34)             119.9656         estimate D2E/DX2                !
 ! A25   A(6,7,8)              116.924          estimate D2E/DX2                !
 ! A26   A(6,7,10)             123.6604         estimate D2E/DX2                !
 ! A27   A(8,7,10)             119.4156         estimate D2E/DX2                !
 ! A28   A(7,8,9)              122.2009         estimate D2E/DX2                !
 ! A29   A(7,8,35)             118.9631         estimate D2E/DX2                !
 ! A30   A(9,8,35)             118.836          estimate D2E/DX2                !
 ! A31   A(4,9,8)              120.7614         estimate D2E/DX2                !
 ! A32   A(4,9,36)             120.4106         estimate D2E/DX2                !
 ! A33   A(8,9,36)             118.8281         estimate D2E/DX2                !
 ! A34   A(7,10,11)            127.3861         estimate D2E/DX2                !
 ! A35   A(7,10,37)            115.3941         estimate D2E/DX2                !
 ! A36   A(11,10,37)           117.2199         estimate D2E/DX2                !
 ! A37   A(10,11,12)           123.2012         estimate D2E/DX2                !
 ! A38   A(10,11,38)           121.773          estimate D2E/DX2                !
 ! A39   A(12,11,38)           115.0257         estimate D2E/DX2                !
 ! A40   A(11,12,13)           123.8336         estimate D2E/DX2                !
 ! A41   A(11,12,21)           115.414          estimate D2E/DX2                !
 ! A42   A(13,12,21)           120.7524         estimate D2E/DX2                !
 ! A43   A(12,13,14)           122.7815         estimate D2E/DX2                !
 ! A44   A(12,13,39)           117.2639         estimate D2E/DX2                !
 ! A45   A(14,13,39)           119.9546         estimate D2E/DX2                !
 ! A46   A(13,14,15)           115.3            estimate D2E/DX2                !
 ! A47   A(13,14,22)           118.8483         estimate D2E/DX2                !
 ! A48   A(15,14,22)           125.8518         estimate D2E/DX2                !
 ! A49   A(14,15,16)           125.4253         estimate D2E/DX2                !
 ! A50   A(14,15,20)           118.0126         estimate D2E/DX2                !
 ! A51   A(16,15,20)           116.562          estimate D2E/DX2                !
 ! A52   A(15,16,17)           121.5115         estimate D2E/DX2                !
 ! A53   A(15,16,40)           119.983          estimate D2E/DX2                !
 ! A54   A(17,16,40)           118.5055         estimate D2E/DX2                !
 ! A55   A(16,17,18)           120.3235         estimate D2E/DX2                !
 ! A56   A(16,17,41)           119.5686         estimate D2E/DX2                !
 ! A57   A(18,17,41)           120.1078         estimate D2E/DX2                !
 ! A58   A(17,18,19)           119.8794         estimate D2E/DX2                !
 ! A59   A(17,18,42)           120.2901         estimate D2E/DX2                !
 ! A60   A(19,18,42)           119.8304         estimate D2E/DX2                !
 ! A61   A(18,19,20)           119.3618         estimate D2E/DX2                !
 ! A62   A(18,19,43)           122.1234         estimate D2E/DX2                !
 ! A63   A(20,19,43)           118.5147         estimate D2E/DX2                !
 ! A64   A(15,20,19)           122.3617         estimate D2E/DX2                !
 ! A65   A(15,20,21)           122.2625         estimate D2E/DX2                !
 ! A66   A(19,20,21)           115.3758         estimate D2E/DX2                !
 ! A67   A(12,21,20)           120.8911         estimate D2E/DX2                !
 ! A68   A(14,22,23)           126.9417         estimate D2E/DX2                !
 ! A69   A(14,22,25)           119.5485         estimate D2E/DX2                !
 ! A70   A(23,22,25)           113.5098         estimate D2E/DX2                !
 ! A71   L(22,23,24,16,-1)     183.3941         estimate D2E/DX2                !
 ! A72   L(22,25,26,1,-1)      180.087          estimate D2E/DX2                !
 ! A73   L(22,23,24,16,-2)     180.0065         estimate D2E/DX2                !
 ! A74   L(22,25,26,1,-2)      179.9983         estimate D2E/DX2                !
 ! D1    D(27,1,2,3)           119.3409         estimate D2E/DX2                !
 ! D2    D(27,1,2,4)           -60.5506         estimate D2E/DX2                !
 ! D3    D(28,1,2,3)            -0.134          estimate D2E/DX2                !
 ! D4    D(28,1,2,4)           179.9744         estimate D2E/DX2                !
 ! D5    D(29,1,2,3)          -119.5952         estimate D2E/DX2                !
 ! D6    D(29,1,2,4)            60.5132         estimate D2E/DX2                !
 ! D7    D(1,2,3,30)             0.1262         estimate D2E/DX2                !
 ! D8    D(1,2,3,31)          -119.3004         estimate D2E/DX2                !
 ! D9    D(1,2,3,32)           119.5408         estimate D2E/DX2                !
 ! D10   D(4,2,3,30)          -179.9824         estimate D2E/DX2                !
 ! D11   D(4,2,3,31)            60.591          estimate D2E/DX2                !
 ! D12   D(4,2,3,32)           -60.5678         estimate D2E/DX2                !
 ! D13   D(1,2,4,5)            179.9507         estimate D2E/DX2                !
 ! D14   D(1,2,4,9)             -0.0487         estimate D2E/DX2                !
 ! D15   D(3,2,4,5)              0.0598         estimate D2E/DX2                !
 ! D16   D(3,2,4,9)           -179.9396         estimate D2E/DX2                !
 ! D17   D(2,4,5,6)            179.9931         estimate D2E/DX2                !
 ! D18   D(2,4,5,33)            -0.0054         estimate D2E/DX2                !
 ! D19   D(9,4,5,6)             -0.0075         estimate D2E/DX2                !
 ! D20   D(9,4,5,33)           179.994          estimate D2E/DX2                !
 ! D21   D(2,4,9,8)           -179.9919         estimate D2E/DX2                !
 ! D22   D(2,4,9,36)             0.0075         estimate D2E/DX2                !
 ! D23   D(5,4,9,8)              0.0087         estimate D2E/DX2                !
 ! D24   D(5,4,9,36)          -179.9919         estimate D2E/DX2                !
 ! D25   D(4,5,6,7)              0.0029         estimate D2E/DX2                !
 ! D26   D(4,5,6,34)          -179.9974         estimate D2E/DX2                !
 ! D27   D(33,5,6,7)          -179.9986         estimate D2E/DX2                !
 ! D28   D(33,5,6,34)            0.0011         estimate D2E/DX2                !
 ! D29   D(5,6,7,8)              0.0008         estimate D2E/DX2                !
 ! D30   D(5,6,7,10)           179.998          estimate D2E/DX2                !
 ! D31   D(34,6,7,8)          -179.9989         estimate D2E/DX2                !
 ! D32   D(34,6,7,10)           -0.0018         estimate D2E/DX2                !
 ! D33   D(6,7,8,9)              0.0004         estimate D2E/DX2                !
 ! D34   D(6,7,8,35)           179.9972         estimate D2E/DX2                !
 ! D35   D(10,7,8,9)          -179.9969         estimate D2E/DX2                !
 ! D36   D(10,7,8,35)           -0.0001         estimate D2E/DX2                !
 ! D37   D(6,7,10,11)           -0.0176         estimate D2E/DX2                !
 ! D38   D(6,7,10,37)          179.9837         estimate D2E/DX2                !
 ! D39   D(8,7,10,11)          179.9794         estimate D2E/DX2                !
 ! D40   D(8,7,10,37)           -0.0192         estimate D2E/DX2                !
 ! D41   D(7,8,9,4)             -0.0053         estimate D2E/DX2                !
 ! D42   D(7,8,9,36)           179.9952         estimate D2E/DX2                !
 ! D43   D(35,8,9,4)           179.9979         estimate D2E/DX2                !
 ! D44   D(35,8,9,36)           -0.0016         estimate D2E/DX2                !
 ! D45   D(7,10,11,12)        -179.9988         estimate D2E/DX2                !
 ! D46   D(7,10,11,38)          -0.002          estimate D2E/DX2                !
 ! D47   D(37,10,11,12)         -0.0002         estimate D2E/DX2                !
 ! D48   D(37,10,11,38)        179.9966         estimate D2E/DX2                !
 ! D49   D(10,11,12,13)        179.9879         estimate D2E/DX2                !
 ! D50   D(10,11,12,21)         -0.0118         estimate D2E/DX2                !
 ! D51   D(38,11,12,13)         -0.009          estimate D2E/DX2                !
 ! D52   D(38,11,12,21)        179.9912         estimate D2E/DX2                !
 ! D53   D(11,12,13,14)       -179.9988         estimate D2E/DX2                !
 ! D54   D(11,12,13,39)          0.0011         estimate D2E/DX2                !
 ! D55   D(21,12,13,14)          0.0009         estimate D2E/DX2                !
 ! D56   D(21,12,13,39)       -179.9991         estimate D2E/DX2                !
 ! D57   D(11,12,21,20)        179.9929         estimate D2E/DX2                !
 ! D58   D(13,12,21,20)         -0.0069         estimate D2E/DX2                !
 ! D59   D(12,13,14,15)          0.0046         estimate D2E/DX2                !
 ! D60   D(12,13,14,22)       -179.9963         estimate D2E/DX2                !
 ! D61   D(39,13,14,15)       -179.9954         estimate D2E/DX2                !
 ! D62   D(39,13,14,22)          0.0037         estimate D2E/DX2                !
 ! D63   D(13,14,15,16)        179.9941         estimate D2E/DX2                !
 ! D64   D(13,14,15,20)         -0.0043         estimate D2E/DX2                !
 ! D65   D(22,14,15,16)         -0.0049         estimate D2E/DX2                !
 ! D66   D(22,14,15,20)        179.9966         estimate D2E/DX2                !
 ! D67   D(13,14,22,23)       -179.9978         estimate D2E/DX2                !
 ! D68   D(13,14,22,25)          0.001          estimate D2E/DX2                !
 ! D69   D(15,14,22,23)          0.0012         estimate D2E/DX2                !
 ! D70   D(15,14,22,25)       -179.9999         estimate D2E/DX2                !
 ! D71   D(14,15,16,17)       -179.9992         estimate D2E/DX2                !
 ! D72   D(14,15,16,40)          0.0007         estimate D2E/DX2                !
 ! D73   D(20,15,16,17)         -0.0007         estimate D2E/DX2                !
 ! D74   D(20,15,16,40)        179.9992         estimate D2E/DX2                !
 ! D75   D(14,15,20,19)        179.9993         estimate D2E/DX2                !
 ! D76   D(14,15,20,21)         -0.0012         estimate D2E/DX2                !
 ! D77   D(16,15,20,19)          0.0007         estimate D2E/DX2                !
 ! D78   D(16,15,20,21)       -179.9998         estimate D2E/DX2                !
 ! D79   D(15,16,17,18)          0.0003         estimate D2E/DX2                !
 ! D80   D(15,16,17,41)       -179.9999         estimate D2E/DX2                !
 ! D81   D(40,16,17,18)       -179.9996         estimate D2E/DX2                !
 ! D82   D(40,16,17,41)          0.0003         estimate D2E/DX2                !
 ! D83   D(16,17,18,19)          0.0001         estimate D2E/DX2                !
 ! D84   D(16,17,18,42)        179.9996         estimate D2E/DX2                !
 ! D85   D(41,17,18,19)       -179.9997         estimate D2E/DX2                !
 ! D86   D(41,17,18,42)         -0.0002         estimate D2E/DX2                !
 ! D87   D(17,18,19,20)         -0.0001         estimate D2E/DX2                !
 ! D88   D(17,18,19,43)        179.9996         estimate D2E/DX2                !
 ! D89   D(42,18,19,20)       -179.9996         estimate D2E/DX2                !
 ! D90   D(42,18,19,43)          0.0001         estimate D2E/DX2                !
 ! D91   D(18,19,20,15)         -0.0004         estimate D2E/DX2                !
 ! D92   D(18,19,20,21)       -179.9999         estimate D2E/DX2                !
 ! D93   D(43,19,20,15)        180.0            estimate D2E/DX2                !
 ! D94   D(43,19,20,21)          0.0004         estimate D2E/DX2                !
 ! D95   D(15,20,21,12)          0.007          estimate D2E/DX2                !
 ! D96   D(19,20,21,12)       -179.9935         estimate D2E/DX2                !
 --------------------------------------------------------------------------------
 Trust Radius=3.00D-01 FncErr=1.00D-07 GrdErr=1.00D-07 EigMax=2.50D+02 EigMin=1.00D-04
 Number of steps in this run=    225 maximum allowed number of steps=    258.
 GradGradGradGradGradGradGradGradGradGradGradGradGradGradGradGradGradGrad

 Leave Link  103 at Thu Nov 27 20:53:25 2025, MaxMem= 12884901888 cpu:               1.8 elap:               0.1
 (Enter /work/home/gaus24/apprepo/gaussian/16-hy/scripts/../app/g16/l202.exe)
                          Input orientation:                          
 ---------------------------------------------------------------------
 Center     Atomic      Atomic             Coordinates (Angstroms)
 Number     Number       Type             X           Y           Z
 ---------------------------------------------------------------------
      1          6           0        5.455566   -0.141118    0.692285
      2          7           0        4.556016    0.887284    0.215625
      3          6           0        5.091872    2.147983   -0.251668
      4          6           0        3.210580    0.668717    0.209588
      5          6           0        2.303973    1.659706   -0.251383
      6          6           0        0.943037    1.434165   -0.255854
      7          6           0        0.390335    0.219677    0.193024
      8          6           0        1.290190   -0.759159    0.648732
      9          6           0        2.657072   -0.554121    0.661875
     10          6           0       -1.030373   -0.059299    0.205874
     11          6           0       -2.031301    0.758368   -0.191775
     12          6           0       -3.421364    0.386228   -0.139404
     13          6           0       -4.444344    1.203086   -0.538006
     14          6           0       -5.809891    0.812470   -0.476497
     15          6           0       -6.052951   -0.534525    0.046575
     16          6           0       -7.319470   -1.135863    0.199583
     17          6           0       -7.455346   -2.415567    0.703150
     18          6           0       -6.324670   -3.151878    1.076947
     19          6           0       -5.066583   -2.597173    0.942057
     20          6           0       -4.939930   -1.304493    0.432648
     21          8           0       -3.670151   -0.840472    0.334921
     22          6           0       -6.790558    1.714513   -0.906382
     23          6           0       -8.197019    1.505267   -0.920383
     24          7           0       -9.350161    1.397905   -0.957737
     25          6           0       -6.401230    2.997520   -1.393622
     26          7           0       -6.086838    4.039528   -1.789502
     27          1           0        5.261090   -0.401957    1.746159
     28          1           0        6.487227    0.218841    0.619008
     29          1           0        5.375731   -1.065943    0.096668
     30          1           0        6.183690    2.128731   -0.168423
     31          1           0        4.721577    2.999256    0.343773
     32          1           0        4.835923    2.338465   -1.307352
     33          1           0        2.675540    2.617387   -0.609805
     34          1           0        0.289460    2.228900   -0.620454
     35          1           0        0.897060   -1.714717    1.004874
     36          1           0        3.303373   -1.349709    1.026414
     37          1           0       -1.311032   -1.047114    0.582453
     38          1           0       -1.835823    1.758943   -0.579347
     39          1           0       -4.177564    2.188536   -0.914405
     40          1           0       -8.215691   -0.591724   -0.080866
     41          1           0       -8.450377   -2.849862    0.808067
     42          1           0       -6.432602   -4.162410    1.474558
     43          1           0       -4.161781   -3.137425    1.221559
 ---------------------------------------------------------------------
                    Distance matrix (angstroms):
                    1          2          3          4          5
     1  C    0.000000
     2  N    1.447068   0.000000
     3  C    2.502659   1.447365   0.000000
     4  C    2.434911   1.363088   2.437262   0.000000
     5  C    3.750468   2.426197   2.830335   1.420032   0.000000
     6  C    4.872720   3.684425   4.209796   2.438093   1.379505
     7  C    5.102548   4.218900   5.101036   2.855817   2.435815
     8  C    4.211203   3.682931   4.869803   2.433018   2.772881
     9  C    2.828969   2.425444   3.750224   1.416428   2.420692
    10  C    6.504667   5.666027   6.524058   4.302988   3.779144
    11  C    7.592352   6.601162   7.257700   5.257988   4.428381
    12  C    8.931387   8.000981   8.694341   6.647125   5.866325
    13  C   10.066216   9.037377   9.587192   7.709884   6.769818
    14  C   11.365997  10.389257  10.985563   9.047667   8.161083
    15  C   11.533328  10.705153  11.466991   9.342771   8.645323
    16  C   12.823175  12.046600  12.846349  10.683565  10.031413
    17  C   13.109724  12.466729  13.385453  11.113882  10.619006
    18  C   12.164974  11.638128  12.656665  10.308746   9.968414
    19  C   10.807876  10.259803  11.275446   8.928268   8.594790
    20  C   10.463612   9.748024  10.631318   8.388928   7.856749
    21  O    9.159449   8.406497   9.276206   7.045411   6.502676
    22  C   12.488661  11.431884  11.908346  10.117403   9.118252
    23  C   13.845734  12.818437  13.321219  11.493909  10.523414
    24  N   14.976672  13.964931  14.478725  12.635924  11.678455
    25  C   12.441288  11.274041  11.580897  10.019006   8.881160
    26  N   12.524542  11.279518  11.441435  10.089633   8.856358
    27  H    1.102954   2.121746   3.243785   2.777046   4.121306
    28  H    1.095110   2.083053   2.535089   3.332631   4.509244
    29  H    1.102921   2.121599   3.245186   2.776631   4.121408
    30  H    2.534403   2.082788   1.095156   3.333754   3.908845
    31  H    3.243787   2.122324   1.102875   2.780743   2.827263
    32  H    3.245126   2.122200   1.102844   2.780451   2.826049
    33  H    4.127146   2.685290   2.487421   2.180593   1.087971
    34  H    5.833431   4.549996   4.817231   3.414101   2.125666
    35  H    4.832588   4.558650   5.839161   3.415496   3.865789
    36  H    2.490836   2.688983   4.131110   2.179417   3.418793
    37  H    6.827864   6.188595   7.204275   4.850575   4.592431
    38  H    7.641441   6.499798   6.946343   5.222757   4.153952
    39  H   10.040216   8.902003   9.293187   7.626132   6.536787
    40  H   13.700513  12.860477  13.587730  11.499249  10.759244
    41  H   14.167778  13.545609  14.473907  12.194937  11.709598
    42  H   12.574230  12.158703  13.251959  10.859599  10.639721
    43  H   10.087187   9.654542  10.758068   8.358379   8.184620
                    6          7          8          9         10
     6  C    0.000000
     7  C    1.407819   0.000000
     8  C    2.397803   1.405534   0.000000
     9  C    2.780903   2.440631   1.382237   0.000000
    10  C    2.517534   1.447896   2.463928   3.748338   0.000000
    11  C    3.050819   2.510493   3.747217   4.942892   1.352242
    12  C    4.489959   3.829790   4.912413   6.202716   2.456532
    13  C    5.399712   4.987546   6.176053   7.413339   3.715127
    14  C    6.785074   6.264380   7.358485   8.651758   4.906058
    15  C    7.273998   6.488929   7.371212   8.731751   5.047524
    16  C    8.664958   7.828066   8.629594  10.004176   6.380578
    17  C    9.288324   8.292131   8.901182  10.282397   6.861454
    18  C    8.696420   7.565711   7.993407   9.359076   6.192930
    19  C    7.334999   6.186569   6.623661   7.994210   4.824288
    20  C    6.525610   5.549075   6.257673   7.637410   4.109327
    21  O    5.177306   4.198999   4.970922   6.342132   2.755959
    22  C    7.765970   7.416769   8.592783   9.841943   6.128887
    23  C    9.164457   8.754145   9.879113  11.160461   7.421396
    24  N   10.317165   9.878752  10.975005  12.272212   8.526213
    25  C    7.594528   7.507277   8.800101   9.944448   6.383465
    26  N    7.652394   7.776596   9.131972  10.176778   6.808065
    27  H    5.101468   5.150040   4.135213   2.824842   6.486324
    28  H    5.742859   6.111755   5.288342   3.907607   7.534079
    29  H    5.101332   5.149396   4.134071   2.823567   6.485633
    30  H    5.287202   6.110491   5.740557   4.508229   7.547866
    31  H    4.133573   5.148636   5.098343   4.121876   6.516035
    32  H    4.132549   5.148169   5.098408   4.122172   6.515563
    33  H    2.127642   3.408183   3.860592   3.417013   4.643681
    34  H    1.091650   2.170001   3.397174   3.872359   2.767785
    35  H    3.392198   2.158182   1.092923   2.135948   2.663420
    36  H    3.868508   3.412229   2.131737   1.087913   4.595629
    37  H    3.455479   2.156632   2.617950   3.999399   1.093782
    38  H    2.816414   2.814547   4.197733   5.203556   2.138066
    39  H    5.217598   5.095931   6.405360   7.531207   4.026487
    40  H    9.381746   8.648530   9.535309  10.898167   7.210720
    41  H   10.378875   9.378621   9.963687  11.343157   7.950241
    42  H    9.418919   8.209597   8.479718   9.813377   6.901388
    43  H    7.010089   5.748893   5.975639   7.313238   4.506905
                   11         12         13         14         15
    11  C    0.000000
    12  C    1.439967   0.000000
    13  C    2.477989   1.368440   0.000000
    14  C    3.789689   2.449566   1.421648   0.000000
    15  C    4.231082   2.794213   2.438984   1.465292   0.000000
    16  C    5.630809   4.198441   3.779031   2.555761   1.410351
    17  C    6.347836   4.983268   4.868393   3.810421   2.436415
    18  C    5.944131   4.735704   5.010929   4.288851   2.825957
    19  C    4.664565   3.574491   4.125499   3.767024   2.455469
    20  C    3.620141   2.343464   2.734178   2.462704   1.407380
    21  O    2.349367   1.338534   2.353191   2.822961   2.419604
    22  C    4.906670   3.701900   2.429399   1.400068   2.551542
    23  C    6.253384   4.966795   3.784190   2.524952   3.113324
    24  N    7.386571   6.069909   4.927593   3.620475   3.951522
    25  C    5.055148   4.155901   2.789529   2.442385   3.830250
    26  N    5.455834   4.813956   3.508480   3.494937   4.928924
    27  H    7.634193   8.919730  10.098961  11.357009  11.441751
    28  H    8.574017   9.938983  11.036606  12.360082  12.575822
    29  H    7.633835   8.919272  10.098772  11.356721  11.441140
    30  H    8.328536   9.761876  10.674667  12.069525  12.524956
    31  H    7.135107   8.565563   9.381784  10.787340  11.343121
    32  H    7.134422   8.564935   9.381062  10.786674  11.342608
    33  H    5.077899   6.509346   7.259350   8.676292   9.303330
    34  H    2.780677   4.170979   4.844378   6.263312   6.950369
    35  H    4.015397   4.936813   6.278905   7.318765   7.114340
    36  H    5.864019   7.042351   8.306100   9.486061   9.442744
    37  H    2.092363   2.651236   4.017023   4.981884   4.799553
    38  H    1.090676   2.142857   2.667409   4.086516   4.841069
    39  H    2.678437   2.102564   1.088098   2.179406   3.443199
    40  H    6.331013   4.893403   4.201592   2.813567   2.167247
    41  H    7.431255   6.054829   5.855476   4.694140   3.418816
    42  H    6.808977   5.688808   6.065652   5.379946   3.917246
    43  H    4.659792   3.849230   4.692116   4.604491   3.425230
                   16         17         18         19         20
    16  C    0.000000
    17  C    1.381913   0.000000
    18  C    2.413237   1.400110   0.000000
    19  C    2.786072   2.407540   1.381548   0.000000
    20  C    2.396866   2.763146   2.396968   1.395192   0.000000
    21  O    3.663756   4.116336   3.597175   2.324787   1.355435
    22  C    3.102830   4.482198   5.275643   4.997945   3.785792
    23  C    2.999997   4.308001   5.402223   5.486194   4.509332
    24  N    3.447184   4.570715   5.830443   6.157834   5.355956
    25  C    4.523973   5.899926   6.627569   6.207840   4.896731
    26  N    5.679834   7.053678   7.745283   7.249009   5.900162
    27  H   12.696496  12.917052  11.926430  10.588974  10.324760
    28  H   13.879338  14.189522  13.255797  11.896420  11.529752
    29  H   12.695811  12.916108  11.925245  10.587789  10.323887
    30  H   13.897062  14.402555  13.634326  12.252998  11.656896
    31  H   12.732118  13.331426  12.664658  11.290971  10.577092
    32  H   12.731669  13.331100  12.664421  11.290703  10.576674
    33  H   10.707111  11.388122  10.822815   9.462578   8.629208
    34  H    8.360019   9.127159   8.693714   7.376965   6.398469
    35  H    8.276166   8.387187   7.363695   6.028905   5.879300
    36  H   10.657119  10.816219   9.795386   8.462827   8.264784
    37  H    6.021279   6.296017   5.459956   4.078745   3.641097
    38  H    6.249562   7.116908   6.856327   5.632781   4.477081
    39  H    4.707884   5.878613   6.090612   5.209588   3.820602
    40  H    1.085335   2.125843   3.386869   3.871057   3.391511
    41  H    2.141727   1.090737   2.163825   3.395860   3.853874
    42  H    3.401777   2.166227   1.091293   2.144652   3.388412
    43  H    3.875782   3.411364   2.167766   1.090257   2.141854
                   21         22         23         24         25
    21  O    0.000000
    22  C    4.219683   0.000000
    23  C    5.250792   1.422009   0.000000
    24  N    6.240498   2.579621   1.158732   0.000000
    25  C    5.017653   1.426565   2.382359   3.383040   0.000000
    26  N    5.845336   2.584728   3.410382   4.280103   1.158164
    27  H    9.052676  12.520289  13.851665  14.967939  12.546887
    28  H   10.216417  13.448547  14.820650  15.959297  13.337318
    29  H    9.051828  12.520210  13.851536  14.967773  12.547092
    30  H   10.303771  13.001818  14.413845  15.571052  12.674230
    31  H    9.228472  11.650868  13.065994  14.222239  11.257681
    32  H    9.228000  11.650114  13.065279  14.221528  11.256793
    33  H    7.288147   9.513683  10.933700  12.092381   9.118477
    34  H    5.100226   7.104436   8.522554   9.681250   6.778930
    35  H    4.698143   8.632033   9.837539  10.887874   9.012380
    36  H    7.026203  10.724393  12.008327  13.099549  10.905700
    37  H    2.381053   6.314145   7.495998   8.542711   6.795150
    38  H    3.310227   4.965716   6.375380   7.532517   4.800006
    39  H    3.315595   2.655654   4.077119   5.232851   2.414289
    40  H    4.571290   2.833938   2.258873   2.452458   4.230635
    41  H    5.206926   5.150520   4.692428   4.687345   6.575585
    42  H    4.468241   6.351003   6.400896   6.733893   7.713109
    43  H    2.510741   5.914382   6.513498   7.227576   7.035045
                   26         27         28         29         30
    26  N    0.000000
    27  H   12.688701   0.000000
    28  H   13.360601   1.777434   0.000000
    29  H   12.689128   1.781808   1.777338   0.000000
    30  H   12.523773   3.304723   2.088028   3.305905   0.000000
    31  H   11.065933   3.718334   3.305144   4.124903   1.777058
    32  H   11.064935   4.124877   3.306127   3.721916   1.776971
    33  H    8.955079   4.620830   4.668186   4.621370   3.569414
    34  H    6.730692   6.102407   6.632414   6.102492   5.912386
    35  H    9.470729   4.617099   5.927690   4.615653   6.640571
    36  H   11.187016   2.291052   3.572569   2.289021   4.671552
    37  H    7.369425   6.705462   7.900431   6.704412   8.174391
    38  H    4.973598   7.774550   8.548749   7.774541   8.038544
    39  H    2.799517  10.142852  10.953028  10.142946  10.388246
    40  H    5.375867  13.601384  14.741867  13.600852  14.654375
    41  H    7.732876  13.959820  15.250727  13.958858  15.488571
    42  H    8.834333  12.286464  13.669283  12.285090  14.193261
    43  H    8.017543   9.825908  11.181635   9.824488  11.691587
                   31         32         33         34         35
    31  H    0.000000
    32  H    1.782115   0.000000
    33  H    2.289411   2.287274   0.000000
    34  H    4.600744   4.599365   2.417522   0.000000
    35  H    6.106188   6.106498   4.953515   4.308479   0.000000
    36  H    4.625019   4.625776   4.336962   4.960070   2.433935
    37  H    7.267906   7.267638   5.544620   3.839379   2.345165
    38  H    6.737212   6.736321   4.592412   2.177011   4.695180
    39  H    9.024134   9.023294   6.873263   4.476868   6.683624
    40  H   13.433107  13.432606  11.366490   8.976896   9.245657
    41  H   14.419713  14.419414  12.477468  10.208783   9.418166
    42  H   13.303528  13.303385  11.544197   9.509156   7.741818
    43  H   10.832517  10.832333   9.122539   7.211380   5.259555
                   36         37         38         39         40
    36  H    0.000000
    37  H    4.645579   0.000000
    38  H    6.217196   3.082068   0.000000
    39  H    8.500023   4.574606   2.404281   0.000000
    40  H   11.596959   6.951381   6.817392   4.973037   0.000000
    41  H   11.851109   7.366889   8.180362   6.827099   2.438128
    42  H   10.144030   6.060644   7.772473   7.150304   4.283521
    43  H    7.678707   3.592301   5.712072   5.738332   4.960957
                   41         42         43
    41  H    0.000000
    42  H    2.497681   0.000000
    43  H    4.318070   2.504243   0.000000
 Stoichiometry    C22H17N3O
 Framework group  C1[X(C22H17N3O)]
 Deg. of freedom   123
 Full point group                 C1      NOp   1
 RotChk:  IX=0 Diff= 6.82D-10
 Largest Abelian subgroup         C1      NOp   1
 Largest concise Abelian subgroup C1      NOp   1
                         Standard orientation:                         
 ---------------------------------------------------------------------
 Center     Atomic      Atomic             Coordinates (Angstroms)
 Number     Number       Type             X           Y           Z
 ---------------------------------------------------------------------
      1          6           0        7.828260   -0.924129    0.001080
      2          7           0        6.961273    0.234463   -0.000425
      3          6           0        7.538582    1.561708    0.000328
      4          6           0        5.607594    0.074586   -0.000308
      5          6           0        4.732386    1.192844   -0.000719
      6          6           0        3.362961    1.026383   -0.000742
      7          6           0        2.770355   -0.250634   -0.000302
      8          6           0        3.639205   -1.355454    0.000184
      9          6           0        5.013917   -1.211421    0.000240
     10          6           0        1.339374   -0.471306   -0.000265
     11          6           0        0.364154    0.465446   -0.000300
     12          6           0       -1.039182    0.142714   -0.000233
     13          6           0       -2.036487    1.079736   -0.000028
     14          6           0       -3.415884    0.735722    0.000058
     15          6           0       -3.702913   -0.701182    0.000017
     16          6           0       -4.990039   -1.277721    0.000204
     17          6           0       -5.167606   -2.648178    0.000165
     18          6           0       -4.059896   -3.504500   -0.000057
     19          6           0       -2.782725   -2.977710   -0.000236
     20          6           0       -2.613967   -1.592762   -0.000195
     21          8           0       -1.328040   -1.164281   -0.000383
     22          6           0       -4.368077    1.762133    0.000190
     23          6           0       -5.782528    1.615710    0.000333
     24          7           0       -6.940143    1.564843    0.000323
     25          6           0       -3.936735    3.121924    0.000214
     26          7           0       -3.588224    4.226408    0.000198
     27          1           0        7.672021   -1.553998    0.892911
     28          1           0        8.872453   -0.594090    0.000268
     29          1           0        7.671535   -1.556438   -0.888896
     30          1           0        8.630677    1.479893   -0.000217
     31          1           0        7.242488    2.139443    0.891891
     32          1           0        7.241793    2.140585   -0.890224
     33          1           0        5.135365    2.203432   -0.001049
     34          1           0        2.734625    1.919072   -0.001110
     35          1           0        3.214717   -2.362575    0.000582
     36          1           0        5.634949   -2.104659    0.000705
     37          1           0        1.026390   -1.519353   -0.000179
     38          1           0        0.592303    1.531993   -0.000329
     39          1           0       -1.737461    2.125939    0.000071
     40          1           0       -5.869337   -0.641494    0.000385
     41          1           0       -6.177586   -3.060058    0.000312
     42          1           0       -4.200751   -4.586665   -0.000081
     43          1           0       -1.894710   -3.610237   -0.000405
 ---------------------------------------------------------------------
 Rotational constants (GHZ):           0.4539487           0.0715440           0.0618519
 Leave Link  202 at Thu Nov 27 20:53:26 2025, MaxMem= 12884901888 cpu:               0.9 elap:               0.0
 (Enter /work/home/gaus24/apprepo/gaussian/16-hy/scripts/../app/g16/l716.exe)
 Electric field and nuclear coordinate derivatives read from checkpoint file.
 Rotating derivatives to standard orientation.
 Dipole        = 6.01923012D+00-3.54473290D+00 4.58803874D-04
 Polarizability= 8.98377116D+02-7.32103656D+01 4.37554441D+02
                 1.72254518D-03-9.72996044D-03 1.48363805D+02
 Full mass-weighted force constant matrix:
 Low frequencies ---   -6.9168   -2.5687   -0.0185   -0.0081    0.0121    2.5870
 Low frequencies ---   20.2149   26.5138   35.0905
 Diagonal vibrational polarizability:
      321.1421448      50.1149411     175.7957281
 Harmonic frequencies (cm**-1), IR intensities (KM/Mole), Raman scattering
 activities (A**4/AMU), depolarization ratios for plane and unpolarized
 incident light, reduced masses (AMU), force constants (mDyne/A),
 and normal coordinates:
                      1                      2                      3
                      A                      A                      A
 Frequencies --     19.9169                26.5093                35.0859
 Red. masses --      4.8674                 4.2473                 6.0362
 Frc consts  --      0.0011                 0.0018                 0.0044
 IR Inten    --      0.9999                 0.9190                 2.4665
  Atom  AN      X      Y      Z        X      Y      Z        X      Y      Z
     1   6    -0.00   0.00   0.25    -0.00  -0.00   0.02     0.05   0.19   0.00
     2   7     0.00  -0.00   0.07     0.00   0.00   0.09    -0.02   0.14   0.00
     3   6    -0.00   0.00  -0.05    -0.00   0.00   0.28    -0.10   0.18   0.00
     4   6    -0.00  -0.00   0.02    -0.00   0.00   0.01    -0.01   0.06  -0.00
     5   6     0.00  -0.00  -0.14    -0.00   0.00   0.09    -0.07   0.01  -0.00
     6   6     0.00  -0.00  -0.18    -0.00   0.00   0.03    -0.06  -0.06  -0.00
     7   6    -0.00  -0.00  -0.06     0.00  -0.00  -0.11     0.01  -0.10  -0.00
     8   6    -0.00   0.00   0.10     0.00  -0.00  -0.20     0.07  -0.05   0.00
     9   6    -0.00   0.00   0.14     0.00  -0.00  -0.14     0.06   0.03   0.00
    10   6    -0.00   0.00  -0.07     0.00  -0.00  -0.14     0.02  -0.15  -0.00
    11   6     0.00   0.00  -0.13    -0.00  -0.00  -0.11     0.01  -0.16   0.00
    12   6    -0.00   0.00  -0.11    -0.00  -0.00  -0.09     0.00  -0.13   0.00
    13   6    -0.00   0.00  -0.10     0.00  -0.00  -0.06     0.04  -0.09   0.00
    14   6     0.00   0.00  -0.03     0.00  -0.00  -0.01     0.03  -0.03   0.00
    15   6     0.00   0.00  -0.03     0.00  -0.00   0.03    -0.03  -0.01   0.00
    16   6     0.00  -0.00  -0.02     0.00   0.00   0.12    -0.06   0.05  -0.00
    17   6     0.00  -0.00  -0.02     0.00   0.00   0.15    -0.12   0.05  -0.00
    18   6     0.00  -0.00  -0.03    -0.00  -0.00   0.10    -0.16   0.00  -0.00
    19   6     0.00   0.00  -0.05    -0.00  -0.00   0.01    -0.14  -0.05  -0.00
    20   6     0.00   0.00  -0.05    -0.00  -0.00  -0.02    -0.07  -0.06  -0.00
    21   8     0.00   0.00  -0.08    -0.00  -0.00  -0.09    -0.05  -0.12   0.00
    22   6     0.00  -0.00   0.04     0.00   0.00  -0.00     0.08   0.02   0.00
    23   6     0.00  -0.00   0.18     0.00   0.00   0.05     0.07   0.09  -0.00
    24   7     0.00  -0.00   0.29     0.00   0.00   0.09     0.07   0.15  -0.00
    25   6    -0.00  -0.00   0.02     0.00   0.00  -0.05     0.15  -0.00   0.00
    26   7    -0.00   0.00  -0.01     0.00  -0.00  -0.10     0.22  -0.02   0.00
    27   1    -0.05   0.10   0.32    -0.03  -0.08  -0.05     0.09   0.18   0.00
    28   1    -0.00  -0.00   0.27    -0.00   0.00   0.08     0.03   0.26   0.00
    29   1     0.05  -0.10   0.32     0.03   0.08  -0.05     0.09   0.18   0.00
    30   1     0.00  -0.00   0.01    -0.00   0.00   0.32    -0.09   0.24   0.00
    31   1    -0.04   0.10  -0.13    -0.04  -0.11   0.34    -0.13   0.16  -0.00
    32   1     0.04  -0.10  -0.13     0.04   0.11   0.34    -0.13   0.16  -0.00
    33   1     0.00  -0.00  -0.24    -0.00   0.00   0.20    -0.13   0.04  -0.00
    34   1     0.00  -0.00  -0.30     0.00   0.00   0.10    -0.10  -0.10  -0.00
    35   1    -0.00   0.00   0.19     0.00  -0.00  -0.30     0.13  -0.07   0.00
    36   1    -0.00   0.00   0.26    -0.00  -0.00  -0.21     0.11   0.06   0.00
    37   1    -0.00   0.00   0.00     0.00  -0.00  -0.19     0.04  -0.16  -0.00
    38   1     0.00   0.00  -0.19    -0.00  -0.00  -0.08     0.01  -0.16   0.00
    39   1    -0.00   0.00  -0.12     0.00  -0.00  -0.07     0.09  -0.10   0.00
    40   1     0.00  -0.00  -0.02     0.00   0.00   0.17    -0.03   0.09   0.00
    41   1     0.00  -0.00  -0.02     0.00   0.00   0.22    -0.14   0.10  -0.00
    42   1     0.00  -0.00  -0.03    -0.00  -0.00   0.12    -0.21   0.01  -0.00
    43   1     0.00   0.00  -0.06    -0.00  -0.00  -0.03    -0.17  -0.10  -0.00
                      4                      5                      6
                      A                      A                      A
 Frequencies --     36.1957                62.3049                71.1424
 Red. masses --      6.7211                 4.8036                 5.4861
 Frc consts  --      0.0052                 0.0110                 0.0164
 IR Inten    --      1.2470                 0.0069                 3.8538
  Atom  AN      X      Y      Z        X      Y      Z        X      Y      Z
     1   6     0.00  -0.00  -0.19    -0.00   0.00   0.13     0.00  -0.00  -0.16
     2   7    -0.00   0.00  -0.04     0.00  -0.00  -0.02    -0.00   0.00   0.03
     3   6     0.00   0.00   0.01    -0.00  -0.00   0.14     0.00   0.00  -0.02
     4   6     0.00   0.00   0.02     0.00  -0.00  -0.09    -0.00   0.00   0.07
     5   6    -0.00   0.00   0.13     0.00  -0.00  -0.12     0.00   0.00   0.10
     6   6    -0.00   0.00   0.16     0.00  -0.00  -0.13     0.00   0.00   0.08
     7   6     0.00  -0.00   0.10     0.00  -0.00  -0.11    -0.00   0.00   0.06
     8   6     0.00  -0.00   0.02    -0.00  -0.00  -0.13    -0.00   0.00   0.08
     9   6     0.00   0.00  -0.03    -0.00  -0.00  -0.12    -0.00   0.00   0.08
    10   6     0.00  -0.00   0.10     0.00   0.00  -0.04     0.00   0.00  -0.01
    11   6    -0.00  -0.00   0.05     0.00   0.00   0.02    -0.00  -0.00  -0.17
    12   6    -0.00  -0.00   0.03     0.00   0.00   0.08    -0.00  -0.00  -0.17
    13   6    -0.00  -0.00  -0.08    -0.00   0.00  -0.01    -0.00  -0.00  -0.24
    14   6    -0.00  -0.00  -0.05    -0.00   0.00  -0.02    -0.00  -0.00  -0.16
    15   6    -0.00  -0.00  -0.05     0.00   0.00  -0.04    -0.00  -0.00  -0.12
    16   6    -0.00   0.00  -0.18    -0.00   0.00  -0.20    -0.00   0.00  -0.10
    17   6    -0.00   0.00  -0.18     0.00  -0.00  -0.16    -0.00  -0.00   0.05
    18   6    -0.00  -0.00  -0.05     0.00  -0.00   0.07    -0.00  -0.00   0.19
    19   6    -0.00  -0.00   0.06     0.00   0.00   0.21    -0.00  -0.00   0.15
    20   6    -0.00  -0.00   0.05     0.00   0.00   0.13    -0.00  -0.00  -0.01
    21   8    -0.00  -0.00   0.12     0.00   0.00   0.21    -0.00  -0.00  -0.04
    22   6     0.00   0.00  -0.04    -0.00   0.00  -0.02    -0.00  -0.00  -0.06
    23   6     0.00   0.00   0.17    -0.00  -0.00  -0.02     0.00   0.00  -0.02
    24   7     0.00   0.00   0.36    -0.00  -0.00  -0.02    -0.00   0.00   0.01
    25   6     0.00  -0.00  -0.17    -0.00   0.00   0.04     0.00  -0.00   0.10
    26   7     0.00  -0.00  -0.29    -0.00   0.00   0.11     0.00  -0.00   0.28
    27   1     0.06  -0.07  -0.23    -0.06   0.06   0.17     0.08  -0.09  -0.21
    28   1     0.00   0.00  -0.24    -0.00  -0.00   0.17     0.00  -0.00  -0.22
    29   1    -0.06   0.07  -0.23     0.06  -0.06   0.17    -0.08   0.08  -0.21
    30   1    -0.00   0.00  -0.04    -0.00   0.00   0.19     0.00  -0.00  -0.00
    31   1     0.04  -0.05   0.05    -0.05  -0.08   0.18    -0.01   0.03  -0.05
    32   1    -0.04   0.05   0.06     0.05   0.08   0.18     0.01  -0.03  -0.05
    33   1    -0.00   0.00   0.18     0.00  -0.00  -0.12     0.00   0.00   0.11
    34   1    -0.00   0.00   0.24     0.00  -0.00  -0.14     0.00   0.00   0.09
    35   1     0.00  -0.00  -0.02    -0.00  -0.00  -0.13    -0.00   0.00   0.08
    36   1     0.00  -0.00  -0.10    -0.00  -0.00  -0.12    -0.00   0.00   0.09
    37   1     0.00  -0.00   0.11    -0.00   0.00  -0.02     0.00   0.00   0.08
    38   1    -0.00  -0.00   0.01     0.00   0.00  -0.01    -0.00  -0.00  -0.28
    39   1     0.00  -0.00  -0.13    -0.00   0.00  -0.08    -0.00  -0.00  -0.32
    40   1    -0.00   0.00  -0.29    -0.00   0.00  -0.38    -0.00   0.00  -0.21
    41   1    -0.00   0.00  -0.29    -0.00  -0.00  -0.30    -0.00   0.00   0.06
    42   1    -0.00  -0.00  -0.04     0.00  -0.00   0.12    -0.00  -0.00   0.33
    43   1    -0.00  -0.00   0.15     0.00   0.00   0.36    -0.00  -0.00   0.25
                      7                      8                      9
                      A                      A                      A
 Frequencies --     88.7467               101.3528               114.1990
 Red. masses --      2.4144                 1.9312                 8.3170
 Frc consts  --      0.0112                 0.0117                 0.0639
 IR Inten    --      0.2329                 1.0888                 5.4231
  Atom  AN      X      Y      Z        X      Y      Z        X      Y      Z
     1   6     0.00   0.00  -0.16     0.00  -0.00  -0.10    -0.12  -0.11  -0.00
     2   7     0.00   0.00  -0.04    -0.00   0.00   0.19    -0.03  -0.04   0.00
     3   6    -0.00  -0.00   0.21    -0.00   0.00  -0.05     0.07  -0.09   0.00
     4   6    -0.00  -0.00  -0.02    -0.00  -0.00   0.08    -0.04   0.05   0.00
     5   6    -0.00  -0.00  -0.13    -0.00  -0.00  -0.01     0.01   0.10  -0.00
     6   6    -0.00  -0.00  -0.12    -0.00  -0.00  -0.07     0.00   0.16  -0.00
     7   6    -0.00  -0.00   0.01    -0.00  -0.00  -0.06    -0.04   0.18  -0.00
     8   6    -0.00   0.00   0.12    -0.00  -0.00  -0.03    -0.09   0.14   0.00
     9   6    -0.00   0.00   0.10    -0.00  -0.00   0.03    -0.09   0.08   0.00
    10   6    -0.00  -0.00   0.03     0.00  -0.00  -0.06    -0.03   0.15  -0.00
    11   6     0.00   0.00  -0.00     0.00   0.00  -0.00    -0.08   0.10  -0.00
    12   6     0.00   0.00   0.01     0.00   0.00   0.03    -0.05   0.00   0.00
    13   6     0.00   0.00   0.01     0.00   0.00   0.04    -0.07  -0.03   0.00
    14   6     0.00   0.00   0.01     0.00   0.00   0.03    -0.06  -0.06   0.00
    15   6     0.00   0.00   0.01     0.00   0.00   0.02    -0.03  -0.06   0.00
    16   6     0.00   0.00   0.02     0.00   0.00  -0.01    -0.02  -0.08   0.00
    17   6     0.00   0.00   0.00     0.00   0.00  -0.03     0.01  -0.09  -0.00
    18   6     0.00   0.00  -0.02     0.00   0.00  -0.01     0.03  -0.06  -0.00
    19   6     0.00   0.00  -0.02     0.00   0.00   0.02     0.02  -0.04   0.00
    20   6     0.00   0.00  -0.00     0.00   0.00   0.03    -0.00  -0.04   0.00
    21   8     0.00   0.00  -0.00     0.00   0.00   0.04    -0.01  -0.01   0.00
    22   6    -0.00   0.00   0.01     0.00   0.00   0.02    -0.03  -0.03   0.00
    23   6    -0.00  -0.00   0.00     0.00  -0.00   0.00    -0.03   0.04   0.00
    24   7    -0.00  -0.00  -0.01     0.00  -0.00  -0.01    -0.03   0.08  -0.00
    25   6    -0.00   0.00  -0.00    -0.00   0.00  -0.00     0.16  -0.09  -0.00
    26   7    -0.00   0.00  -0.01    -0.00   0.00  -0.02     0.53  -0.20  -0.00
    27   1     0.22   0.04  -0.09    -0.11  -0.28  -0.32    -0.17  -0.10  -0.00
    28   1     0.00  -0.00  -0.45     0.00   0.00   0.15    -0.09  -0.19   0.00
    29   1    -0.22  -0.04  -0.09     0.11   0.28  -0.32    -0.17  -0.10  -0.00
    30   1    -0.00   0.00   0.41    -0.00  -0.00   0.29     0.07  -0.17   0.00
    31   1    -0.17  -0.10   0.21    -0.24   0.24  -0.29     0.12  -0.06   0.00
    32   1     0.17   0.10   0.21     0.24  -0.24  -0.29     0.12  -0.06  -0.00
    33   1     0.00  -0.00  -0.24    -0.00  -0.00  -0.04     0.06   0.08  -0.00
    34   1    -0.00  -0.00  -0.22    -0.00  -0.00  -0.13     0.03   0.18  -0.00
    35   1    -0.00   0.00   0.23    -0.00  -0.00  -0.05    -0.14   0.16   0.00
    36   1    -0.00   0.00   0.20    -0.00  -0.00   0.04    -0.13   0.05   0.00
    37   1    -0.00  -0.00   0.08    -0.00  -0.00  -0.09     0.00   0.14  -0.00
    38   1     0.00   0.00  -0.03     0.00  -0.00   0.03    -0.14   0.11  -0.00
    39   1     0.00   0.00   0.02     0.00   0.00   0.03    -0.09  -0.03   0.00
    40   1     0.00  -0.00   0.04     0.00   0.00  -0.02    -0.03  -0.09   0.00
    41   1     0.00  -0.00   0.01     0.00   0.00  -0.06     0.02  -0.12  -0.00
    42   1     0.00   0.00  -0.04     0.00   0.00  -0.03     0.05  -0.07  -0.00
    43   1     0.00   0.00  -0.04     0.00   0.00   0.03     0.03  -0.02  -0.00
                     10                     11                     12
                      A                      A                      A
 Frequencies --    129.2350               150.9017               154.0357
 Red. masses --      5.9998                 3.2549                11.3427
 Frc consts  --      0.0590                 0.0437                 0.1586
 IR Inten    --      1.1342                 0.0140                15.7307
  Atom  AN      X      Y      Z        X      Y      Z        X      Y      Z
     1   6     0.08  -0.07  -0.00    -0.00  -0.00   0.03    -0.03   0.01  -0.00
     2   7     0.15  -0.02   0.00     0.00  -0.00   0.00    -0.04  -0.00  -0.00
     3   6     0.24  -0.06  -0.00     0.00  -0.00   0.03    -0.06   0.00  -0.00
     4   6     0.13   0.06   0.00     0.00   0.00  -0.08    -0.04  -0.01   0.00
     5   6     0.15   0.08   0.00     0.00   0.00  -0.11    -0.03  -0.01   0.00
     6   6     0.13   0.11  -0.00     0.00   0.00  -0.00    -0.03  -0.01   0.00
     7   6     0.09   0.13  -0.00     0.00   0.00   0.09    -0.02  -0.01  -0.00
     8   6     0.08   0.12  -0.00     0.00   0.00  -0.00    -0.03  -0.02   0.00
     9   6     0.08   0.08   0.00     0.00   0.00  -0.10    -0.03  -0.01   0.00
    10   6     0.08   0.06  -0.00     0.00   0.00   0.15    -0.01  -0.00  -0.00
    11   6    -0.02  -0.04  -0.00    -0.00   0.00   0.20     0.00   0.01  -0.00
    12   6    -0.03  -0.09   0.00    -0.00  -0.00   0.04     0.01  -0.01  -0.00
    13   6    -0.03  -0.08   0.00    -0.00  -0.00   0.02    -0.02  -0.04  -0.00
    14   6    -0.04  -0.05   0.00    -0.00  -0.00  -0.10    -0.01  -0.08   0.00
    15   6    -0.07  -0.04   0.00    -0.00  -0.00  -0.12     0.05  -0.10   0.00
    16   6    -0.09   0.02   0.00    -0.00  -0.00  -0.04     0.07  -0.13   0.00
    17   6    -0.15   0.03  -0.00    -0.00  -0.00   0.09     0.13  -0.14  -0.00
    18   6    -0.18  -0.01  -0.00    -0.00  -0.00   0.10     0.16  -0.11  -0.00
    19   6    -0.15  -0.06   0.00    -0.00  -0.00  -0.02     0.14  -0.07   0.00
    20   6    -0.09  -0.06   0.00    -0.00  -0.00  -0.11     0.08  -0.06   0.00
    21   8    -0.06  -0.10   0.00    -0.00  -0.00  -0.12     0.07  -0.02   0.00
    22   6    -0.03  -0.04   0.00    -0.00  -0.00  -0.11    -0.00  -0.08   0.00
    23   6    -0.04   0.00   0.00    -0.00   0.00  -0.03    -0.03   0.16   0.00
    24   7    -0.04   0.10  -0.00    -0.00   0.00   0.09    -0.06   0.75  -0.00
    25   6    -0.06  -0.03   0.00    -0.00  -0.00  -0.03    -0.03  -0.07   0.00
    26   7    -0.17   0.00  -0.00    -0.00  -0.00   0.05    -0.24  -0.01  -0.00
    27   1     0.04  -0.06  -0.00    -0.22  -0.12  -0.10    -0.03   0.01   0.00
    28   1     0.10  -0.14  -0.00     0.00   0.00   0.34    -0.03   0.01  -0.00
    29   1     0.04  -0.06  -0.00     0.22   0.12  -0.10    -0.03   0.00   0.00
    30   1     0.24  -0.14  -0.00     0.00  -0.00   0.36    -0.05   0.02  -0.00
    31   1     0.29  -0.04   0.00    -0.25   0.07  -0.10    -0.06   0.00   0.00
    32   1     0.28  -0.04  -0.00     0.25  -0.07  -0.10    -0.06   0.00   0.00
    33   1     0.18   0.07   0.00     0.00   0.00  -0.19    -0.03  -0.01   0.00
    34   1     0.16   0.13  -0.00     0.00   0.00  -0.01    -0.04  -0.02   0.00
    35   1     0.07   0.13   0.00     0.00   0.00   0.01    -0.03  -0.02  -0.00
    36   1     0.05   0.06   0.00     0.00  -0.00  -0.17    -0.02  -0.01   0.00
    37   1     0.16   0.03  -0.00     0.00   0.00   0.10    -0.03   0.01  -0.00
    38   1    -0.10  -0.02  -0.00    -0.00   0.00   0.28     0.00   0.01  -0.00
    39   1    -0.01  -0.08  -0.00    -0.00  -0.00   0.14    -0.04  -0.04  -0.00
    40   1    -0.06   0.06   0.00    -0.00  -0.00  -0.05     0.06  -0.13   0.00
    41   1    -0.17   0.06  -0.00     0.00  -0.00   0.18     0.14  -0.18  -0.00
    42   1    -0.22  -0.00  -0.00     0.00  -0.00   0.21     0.19  -0.11  -0.00
    43   1    -0.19  -0.10   0.00    -0.00  -0.00  -0.01     0.17  -0.04   0.00
                     13                     14                     15
                      A                      A                      A
 Frequencies --    163.9668               193.1384               193.7440
 Red. masses --      2.6657                 4.2763                 6.3692
 Frc consts  --      0.0422                 0.0940                 0.1409
 IR Inten    --      0.2115                 9.1786                 5.5990
  Atom  AN      X      Y      Z        X      Y      Z        X      Y      Z
     1   6     0.00   0.00  -0.02    -0.01  -0.00   0.01     0.26   0.11   0.00
     2   7     0.00  -0.00   0.01    -0.00  -0.00  -0.05     0.12   0.00  -0.00
     3   6     0.00  -0.00  -0.03     0.00  -0.00   0.02    -0.01   0.06   0.00
     4   6    -0.00   0.00   0.06    -0.00   0.00  -0.06     0.12  -0.09  -0.00
     5   6    -0.00  -0.00   0.05    -0.00   0.00  -0.03     0.09  -0.11  -0.00
     6   6    -0.00  -0.00  -0.03    -0.00   0.00   0.05     0.09  -0.11   0.00
     7   6    -0.00  -0.00  -0.09    -0.00   0.00   0.09     0.05  -0.09   0.00
     8   6    -0.00  -0.00  -0.02    -0.00   0.00   0.06     0.08  -0.08   0.00
     9   6    -0.00   0.00   0.09    -0.00   0.00  -0.05     0.10  -0.09  -0.00
    10   6    -0.00  -0.00  -0.14     0.00  -0.00   0.08    -0.00   0.00   0.00
    11   6    -0.00  -0.00   0.10    -0.00  -0.00  -0.16     0.00   0.04  -0.01
    12   6    -0.00   0.00   0.05     0.00  -0.00  -0.09    -0.05   0.11  -0.00
    13   6    -0.00   0.00   0.16     0.00  -0.00   0.11    -0.10   0.07   0.00
    14   6    -0.00   0.00   0.02     0.00  -0.00   0.13    -0.12   0.03   0.00
    15   6    -0.00   0.00  -0.08     0.00  -0.00  -0.01    -0.07   0.03  -0.00
    16   6    -0.00  -0.00  -0.11     0.00   0.00  -0.12    -0.06  -0.02  -0.00
    17   6     0.00  -0.00  -0.01    -0.00   0.00  -0.09     0.00  -0.03  -0.00
    18   6     0.00  -0.00   0.13    -0.00  -0.00   0.10     0.04   0.02   0.00
    19   6     0.00   0.00   0.07    -0.00  -0.00   0.10     0.02   0.07   0.00
    20   6    -0.00   0.00  -0.06     0.00  -0.00  -0.02    -0.04   0.07  -0.00
    21   8    -0.00   0.00  -0.13     0.00  -0.00  -0.17    -0.05   0.11  -0.01
    22   6    -0.00   0.00   0.00     0.00   0.00   0.24    -0.18  -0.02   0.01
    23   6    -0.00   0.00   0.00     0.00   0.00   0.09    -0.20  -0.01   0.00
    24   7    -0.00   0.00   0.03     0.00  -0.00  -0.13    -0.20   0.07  -0.00
    25   6    -0.00   0.00  -0.00     0.00   0.00   0.10    -0.12  -0.05   0.00
    26   7     0.00  -0.00  -0.03    -0.00   0.00  -0.15     0.17  -0.14  -0.00
    27   1     0.22   0.12   0.10    -0.23  -0.10  -0.10     0.34   0.09   0.00
    28   1     0.00  -0.00  -0.33    -0.00  -0.00   0.32     0.22   0.24   0.01
    29   1    -0.22  -0.12   0.10     0.22   0.10  -0.10     0.35   0.09  -0.00
    30   1     0.00  -0.00  -0.23     0.00  -0.00   0.18    -0.00   0.17   0.01
    31   1     0.16  -0.04   0.05    -0.12  -0.01  -0.01    -0.08   0.04  -0.00
    32   1    -0.16   0.03   0.05     0.13   0.00  -0.01    -0.06   0.03  -0.00
    33   1    -0.00  -0.00   0.07    -0.00   0.00  -0.05     0.07  -0.11  -0.00
    34   1    -0.00  -0.00  -0.07    -0.00   0.00   0.09     0.11  -0.09   0.00
    35   1    -0.00  -0.00  -0.02    -0.00   0.00   0.08     0.09  -0.09   0.00
    36   1    -0.00   0.00   0.17    -0.00   0.00  -0.11     0.10  -0.09  -0.00
    37   1    -0.00  -0.00  -0.34     0.00  -0.00   0.27    -0.05   0.02   0.01
    38   1     0.00  -0.00   0.33    -0.00  -0.00  -0.35     0.04   0.03  -0.01
    39   1    -0.00  -0.00   0.33     0.00  -0.00   0.22    -0.14   0.08   0.01
    40   1    -0.00  -0.00  -0.19     0.00   0.00  -0.20    -0.08  -0.05  -0.01
    41   1     0.00  -0.00  -0.00    -0.00   0.00  -0.16     0.02  -0.08  -0.01
    42   1     0.00  -0.00   0.26    -0.00  -0.00   0.20     0.09   0.01   0.01
    43   1     0.00   0.00   0.13    -0.00  -0.00   0.17     0.05   0.11   0.01
                     16                     17                     18
                      A                      A                      A
 Frequencies --    211.7502               256.9550               258.8014
 Red. masses --      1.1102                 7.0840                 5.4483
 Frc consts  --      0.0293                 0.2756                 0.2150
 IR Inten    --      0.1067                 3.6311                 1.2466
  Atom  AN      X      Y      Z        X      Y      Z        X      Y      Z
     1   6    -0.00  -0.00   0.04     0.10   0.02  -0.00    -0.00  -0.00  -0.01
     2   7    -0.00  -0.00  -0.01     0.05  -0.01   0.00    -0.00   0.00   0.09
     3   6    -0.00  -0.00  -0.03     0.03   0.01  -0.00     0.00  -0.00  -0.01
     4   6    -0.00  -0.00  -0.01     0.04  -0.02   0.00    -0.00   0.00   0.02
     5   6     0.00   0.00   0.02     0.03  -0.02  -0.00    -0.00   0.00  -0.04
     6   6     0.00   0.00   0.06     0.02  -0.01  -0.00    -0.00  -0.00  -0.05
     7   6    -0.00   0.00   0.01    -0.01   0.01   0.00    -0.00  -0.00  -0.01
     8   6    -0.00   0.00  -0.04     0.00   0.01  -0.00     0.00  -0.00  -0.05
     9   6    -0.00   0.00  -0.03     0.01  -0.01  -0.00     0.00   0.00  -0.02
    10   6     0.00   0.00  -0.00    -0.03   0.00   0.00    -0.00  -0.00   0.05
    11   6    -0.00   0.00  -0.01    -0.07  -0.03   0.00     0.00  -0.00   0.22
    12   6     0.00  -0.00  -0.01    -0.09  -0.02   0.00     0.00   0.00  -0.01
    13   6     0.00  -0.00  -0.01    -0.09  -0.03  -0.00     0.00   0.00  -0.29
    14   6     0.00  -0.00   0.00    -0.11   0.02  -0.00     0.00   0.00  -0.06
    15   6     0.00  -0.00   0.00    -0.17  -0.03  -0.00     0.00   0.00  -0.12
    16   6     0.00   0.00  -0.00    -0.11  -0.22  -0.00     0.00   0.00  -0.05
    17   6    -0.00   0.00  -0.00     0.05  -0.26   0.00     0.00   0.00   0.09
    18   6    -0.00  -0.00   0.00     0.12  -0.18   0.00    -0.00   0.00   0.05
    19   6    -0.00  -0.00   0.00     0.04  -0.01  -0.00     0.00   0.00  -0.09
    20   6     0.00  -0.00   0.00    -0.12   0.01  -0.00     0.00   0.00  -0.09
    21   8     0.00  -0.00  -0.00    -0.12   0.00   0.00     0.00   0.00   0.10
    22   6     0.00   0.00   0.01     0.07   0.20   0.00    -0.00  -0.00   0.29
    23   6     0.00   0.00   0.01     0.08   0.20   0.00    -0.00  -0.00   0.17
    24   7     0.00  -0.00  -0.01     0.10  -0.08  -0.00    -0.00   0.00  -0.16
    25   6     0.00   0.00   0.01     0.14   0.21   0.00    -0.00  -0.00   0.17
    26   7    -0.00   0.00  -0.01    -0.01   0.26  -0.00     0.00  -0.00  -0.14
    27   1     0.24   0.21   0.23     0.12   0.02   0.00     0.14   0.02   0.03
    28   1    -0.00  -0.00  -0.35     0.08   0.06  -0.00    -0.00  -0.00  -0.19
    29   1    -0.24  -0.21   0.23     0.12   0.02  -0.00    -0.14  -0.02   0.03
    30   1    -0.00  -0.00   0.41     0.03   0.02  -0.00     0.00  -0.00  -0.20
    31   1    -0.33   0.14  -0.24     0.03   0.00   0.00     0.16   0.01   0.04
    32   1     0.33  -0.14  -0.24     0.03   0.00   0.00    -0.16  -0.01   0.04
    33   1     0.00   0.00   0.03     0.03  -0.02  -0.00    -0.00   0.00  -0.06
    34   1     0.00   0.00   0.11     0.04   0.01  -0.00    -0.00  -0.00  -0.10
    35   1    -0.00   0.00  -0.08     0.01   0.01  -0.00     0.00  -0.00  -0.07
    36   1    -0.00  -0.00  -0.03    -0.00  -0.02  -0.00     0.00   0.00  -0.02
    37   1     0.00   0.00  -0.02    -0.01  -0.01   0.00    -0.00  -0.00  -0.13
    38   1    -0.00   0.00  -0.00    -0.09  -0.02  -0.00     0.00  -0.00   0.41
    39   1     0.00  -0.00  -0.01    -0.09  -0.04  -0.00     0.00   0.00  -0.40
    40   1     0.00   0.00  -0.00    -0.20  -0.32  -0.00     0.00   0.00  -0.07
    41   1    -0.00   0.00  -0.01     0.09  -0.36   0.00     0.00   0.00   0.21
    42   1    -0.00  -0.00  -0.00     0.23  -0.19   0.00    -0.00   0.00   0.13
    43   1    -0.00  -0.00   0.01     0.14   0.12  -0.00    -0.00  -0.00  -0.10
                     19                     20                     21
                      A                      A                      A
 Frequencies --    268.4058               269.2719               306.9040
 Red. masses --      3.7281                 2.0970                 4.3182
 Frc consts  --      0.1582                 0.0896                 0.2396
 IR Inten    --      0.5350                 2.3487                 0.8077
  Atom  AN      X      Y      Z        X      Y      Z        X      Y      Z
     1   6    -0.16  -0.06   0.00    -0.00  -0.00  -0.01    -0.00  -0.00   0.00
     2   7     0.01   0.07  -0.00    -0.00   0.00   0.18     0.00   0.00  -0.07
     3   6     0.22  -0.02  -0.00     0.00  -0.00  -0.02    -0.00  -0.00   0.00
     4   6     0.00   0.13  -0.00    -0.00   0.00   0.02     0.00   0.00   0.01
     5   6    -0.08   0.06   0.00    -0.00   0.00  -0.04     0.00   0.00   0.06
     6   6    -0.07  -0.08   0.00    -0.00  -0.00  -0.06     0.00  -0.00   0.01
     7   6     0.00  -0.12   0.00    -0.00  -0.00   0.01     0.00  -0.00  -0.06
     8   6     0.09  -0.05   0.00     0.00  -0.00  -0.07     0.00  -0.00   0.01
     9   6     0.07   0.09   0.00     0.00   0.00  -0.10     0.00   0.00   0.04
    10   6    -0.00  -0.16  -0.00    -0.00  -0.00   0.17     0.00  -0.00  -0.02
    11   6     0.03  -0.11  -0.00     0.00  -0.00  -0.06     0.00  -0.00  -0.17
    12   6    -0.00   0.02  -0.00     0.00   0.00   0.01     0.00  -0.00   0.10
    13   6    -0.01   0.04   0.00     0.00   0.00   0.06     0.00  -0.00   0.15
    14   6    -0.03   0.04   0.00     0.00   0.00   0.01    -0.00   0.00  -0.00
    15   6    -0.02   0.03   0.00     0.00   0.00  -0.01    -0.00   0.00  -0.19
    16   6    -0.01  -0.01   0.00     0.00   0.00  -0.01    -0.00  -0.00  -0.14
    17   6     0.05  -0.02  -0.00     0.00   0.00   0.01     0.00  -0.00   0.18
    18   6     0.07   0.00  -0.00     0.00   0.00   0.01     0.00  -0.00   0.07
    19   6     0.04   0.04   0.00     0.00   0.00  -0.01    -0.00   0.00  -0.21
    20   6    -0.02   0.05   0.00     0.00   0.00  -0.01    -0.00   0.00  -0.11
    21   8    -0.03   0.04  -0.00     0.00   0.00  -0.02     0.00  -0.00   0.23
    22   6    -0.06   0.02  -0.00    -0.00  -0.00  -0.03    -0.00   0.00   0.01
    23   6    -0.06   0.01  -0.00    -0.00  -0.00  -0.02    -0.00   0.00  -0.01
    24   7    -0.07   0.01   0.00    -0.00   0.00   0.02    -0.00  -0.00   0.02
    25   6    -0.05   0.02  -0.00    -0.00  -0.00  -0.01    -0.00   0.00   0.03
    26   7     0.04  -0.01   0.00     0.00  -0.00   0.01     0.00   0.00  -0.03
    27   1    -0.26  -0.03  -0.00     0.29   0.05   0.08    -0.09  -0.00  -0.02
    28   1    -0.11  -0.23  -0.00    -0.00  -0.00  -0.38    -0.00  -0.00   0.11
    29   1    -0.26  -0.04   0.00    -0.29  -0.05   0.08     0.09   0.00  -0.02
    30   1     0.21  -0.20   0.00     0.00  -0.00  -0.31     0.00   0.00   0.12
    31   1     0.32   0.03   0.00     0.24   0.04   0.04    -0.10  -0.01  -0.02
    32   1     0.33   0.03  -0.00    -0.23  -0.04   0.04     0.10   0.01  -0.02
    33   1    -0.15   0.10   0.00    -0.00   0.00  -0.02     0.00   0.00   0.12
    34   1    -0.15  -0.13   0.00    -0.00  -0.00  -0.07     0.00  -0.00   0.05
    35   1     0.20  -0.09  -0.00     0.00  -0.00  -0.09     0.00  -0.00   0.03
    36   1     0.13   0.14   0.00     0.00   0.00  -0.13     0.00   0.00   0.07
    37   1    -0.01  -0.16  -0.00    -0.00  -0.00   0.46     0.00  -0.00   0.23
    38   1     0.12  -0.13   0.00     0.00  -0.00  -0.34     0.00  -0.00  -0.44
[...]
    16659.0771    0.634864D+03
    16667.0771    0.629401D+03
    16675.0771    0.624362D+03
    16683.0771    0.619740D+03
    16691.0771    0.615524D+03
    16699.0771    0.611695D+03
    16707.0771    0.608226D+03
    16715.0771    0.605091D+03
    16723.0771    0.602256D+03
    16731.0771    0.599688D+03
    16739.0771    0.597347D+03
    16747.0771    0.595190D+03
    16755.0771    0.593177D+03
    16763.0771    0.591266D+03
    16771.0771    0.589422D+03
    16779.0771    0.587601D+03
    16787.0771    0.585768D+03
    16795.0771    0.583891D+03
    16803.0771    0.581947D+03
    16811.0771    0.579914D+03
    16819.0771    0.577778D+03
    16827.0771    0.575526D+03
    16835.0771    0.573159D+03
    16843.0771    0.570686D+03
    16851.0771    0.568118D+03
    16859.0771    0.565477D+03
    16867.0771    0.562785D+03
    16875.0771    0.560081D+03
    16883.0771    0.557407D+03
    16891.0771    0.554802D+03
    16899.0771    0.552311D+03
    16907.0771    0.549993D+03
    16915.0771    0.547895D+03
    16923.0771    0.546081D+03
    16931.0771    0.544594D+03
    16939.0771    0.543494D+03
    16947.0771    0.542825D+03
    16955.0771    0.542647D+03
    16963.0771    0.542992D+03
    16971.0771    0.543907D+03
    16979.0771    0.545419D+03
    16987.0771    0.547555D+03
    16995.0771    0.550339D+03
    17003.0771    0.553781D+03
    17011.0771    0.557897D+03
    17019.0771    0.562665D+03
    17027.0771    0.568092D+03
    17035.0771    0.574163D+03
    17043.0771    0.580855D+03
    17051.0771    0.588157D+03
    17059.0771    0.596004D+03
    17067.0771    0.604390D+03
    17075.0771    0.613266D+03
    17083.0771    0.622603D+03
    17091.0771    0.632328D+03
    17099.0771    0.642413D+03
    17107.0771    0.652836D+03
    17115.0771    0.663536D+03
    17123.0771    0.674473D+03
    17131.0771    0.685602D+03
    17139.0771    0.696916D+03
    17147.0771    0.708385D+03
    17155.0771    0.719961D+03
    17163.0771    0.731650D+03
    17171.0771    0.743440D+03
    17179.0771    0.755337D+03
    17187.0771    0.767375D+03
    17195.0771    0.779538D+03
    17203.0771    0.791873D+03
    17211.0771    0.804401D+03
    17219.0771    0.817189D+03
    17227.0771    0.830288D+03
    17235.0771    0.843790D+03
    17243.0771    0.857723D+03
    17251.0771    0.872197D+03
    17259.0771    0.887308D+03
    17267.0771    0.903174D+03
    17275.0771    0.919852D+03
    17283.0771    0.937476D+03
    17291.0771    0.956158D+03
    17299.0771    0.976029D+03
    17307.0771    0.997195D+03
    17315.0771    0.101975D+04
    17323.0771    0.104384D+04
    17331.0771    0.106953D+04
    17339.0771    0.109696D+04
    17347.0771    0.112618D+04
    17355.0771    0.115730D+04
    17363.0771    0.119036D+04
    17371.0771    0.122541D+04
    17379.0771    0.126247D+04
    17387.0771    0.130156D+04
    17395.0771    0.134268D+04
    17403.0771    0.138576D+04
    17411.0771    0.143074D+04
    17419.0771    0.147754D+04
    17427.0771    0.152605D+04
    17435.0771    0.157612D+04
    17443.0771    0.162758D+04
    17451.0771    0.168024D+04
    17459.0771    0.173389D+04
    17467.0771    0.178829D+04
    17475.0771    0.184318D+04
    17483.0771    0.189829D+04
    17491.0771    0.195333D+04
    17499.0771    0.200802D+04
    17507.0771    0.206203D+04
    17515.0771    0.211508D+04
    17523.0771    0.216684D+04
    17531.0771    0.221706D+04
    17539.0771    0.226540D+04
    17547.0771    0.231162D+04
    17555.0771    0.235543D+04
    17563.0771    0.239662D+04
    17571.0771    0.243498D+04
    17579.0771    0.247031D+04
    17587.0771    0.250246D+04
    17595.0771    0.253127D+04
    17603.0771    0.255666D+04
    17611.0771    0.257855D+04
    17619.0771    0.259693D+04
    17627.0771    0.261174D+04
    17635.0771    0.262304D+04
    17643.0771    0.263086D+04
    17651.0771    0.263528D+04
    17659.0771    0.263641D+04
    17667.0771    0.263439D+04
    17675.0771    0.262935D+04
    17683.0771    0.262147D+04
    17691.0771    0.261095D+04
    17699.0771    0.259799D+04
    17707.0771    0.258283D+04
    17715.0771    0.256569D+04
    17723.0771    0.254682D+04
    17731.0771    0.252649D+04
    17739.0771    0.250496D+04
    17747.0771    0.248250D+04
    17755.0771    0.245938D+04
    17763.0771    0.243587D+04
    17771.0771    0.241224D+04
    17779.0771    0.238876D+04
    17787.0771    0.236567D+04
    17795.0771    0.234322D+04
    17803.0771    0.232163D+04
    17811.0771    0.230111D+04
    17819.0771    0.228184D+04
    17827.0771    0.226398D+04
    17835.0771    0.224765D+04
    17843.0771    0.223295D+04
    17851.0771    0.221994D+04
    17859.0771    0.220864D+04
    17867.0771    0.219902D+04
    17875.0771    0.219101D+04
    17883.0771    0.218452D+04
    17891.0771    0.217940D+04
    17899.0771    0.217544D+04
    17907.0771    0.217243D+04
    17915.0771    0.217009D+04
    17923.0771    0.216813D+04
    17931.0771    0.216621D+04
    17939.0771    0.216399D+04
    17947.0771    0.216109D+04
    17955.0771    0.215713D+04
    17963.0771    0.215174D+04
    17971.0771    0.214455D+04
    17979.0771    0.213520D+04
    17987.0771    0.212333D+04
    17995.0771    0.210865D+04
    18003.0771    0.209087D+04
    18011.0771    0.206979D+04
    18019.0771    0.204521D+04
    18027.0771    0.201700D+04
    18035.0771    0.198508D+04
    18043.0771    0.194950D+04
    18051.0771    0.191026D+04
    18059.0771    0.186745D+04
    18067.0771    0.182127D+04
    18075.0771    0.177195D+04
    18083.0771    0.171977D+04
    18091.0771    0.166503D+04
    18099.0771    0.160808D+04
    18107.0771    0.154937D+04
    18115.0771    0.148928D+04
    18123.0771    0.142827D+04
    18131.0771    0.136675D+04
    18139.0771    0.130516D+04
    18147.0771    0.124399D+04
    18155.0771    0.118364D+04
    18163.0771    0.112452D+04
    18171.0771    0.106699D+04
    18179.0771    0.101140D+04
    18187.0771    0.958045D+03
    18195.0771    0.907240D+03
    18203.0771    0.859165D+03
    18211.0771    0.814011D+03
    18219.0771    0.771900D+03
    18227.0771    0.732986D+03
    18235.0771    0.697280D+03
    18243.0771    0.664802D+03
    18251.0771    0.635525D+03
    18259.0771    0.609395D+03
    18267.0771    0.586351D+03
    18275.0771    0.566268D+03
    18283.0771    0.549032D+03
    18291.0771    0.534460D+03
    18299.0771    0.522434D+03
    18307.0771    0.512755D+03
    18315.0771    0.505285D+03
    18323.0771    0.499834D+03
    18331.0771    0.496219D+03
    18339.0771    0.494272D+03
    18347.0771    0.493831D+03
    18355.0771    0.494767D+03
    18363.0771    0.496909D+03
    18371.0771    0.500128D+03
    18379.0771    0.504294D+03
    18387.0771    0.509351D+03
    18395.0771    0.515140D+03
    18403.0771    0.521608D+03
    18411.0771    0.528681D+03
    18419.0771    0.536295D+03
    18427.0771    0.544456D+03
    18435.0771    0.553084D+03
    18443.0771    0.562170D+03
    18451.0771    0.571681D+03
    18459.0771    0.581667D+03
    18467.0771    0.592103D+03
    18475.0771    0.603025D+03
    18483.0771    0.614399D+03
    18491.0771    0.626328D+03
    18499.0771    0.638788D+03
    18507.0771    0.651859D+03
    18515.0771    0.665537D+03
    18523.0771    0.679829D+03
    18531.0771    0.694824D+03
    18539.0771    0.710510D+03
    18547.0771    0.726974D+03
    18555.0771    0.744186D+03
    18563.0771    0.762170D+03
    18571.0771    0.780931D+03
    18579.0771    0.800525D+03
    18587.0771    0.820896D+03
    18595.0771    0.842046D+03
    18603.0771    0.863950D+03
    18611.0771    0.886587D+03
    18619.0771    0.909904D+03
    18627.0771    0.933838D+03
    18635.0771    0.958338D+03
    18643.0771    0.983332D+03
    18651.0771    0.100871D+04
    18659.0771    0.103442D+04
    18667.0771    0.106034D+04
    18675.0771    0.108633D+04
    18683.0771    0.111228D+04
    18691.0771    0.113808D+04
    18699.0771    0.116365D+04
    18707.0771    0.118873D+04
    18715.0771    0.121326D+04
    18723.0771    0.123708D+04
    18731.0771    0.126007D+04
    18739.0771    0.128231D+04
    18747.0771    0.130333D+04
    18755.0771    0.132318D+04
    18763.0771    0.134177D+04
    18771.0771    0.135932D+04
    18779.0771    0.137527D+04
    18787.0771    0.138982D+04
    18795.0771    0.140295D+04
    18803.0771    0.141469D+04
    18811.0771    0.142539D+04
    18819.0771    0.143464D+04
    18827.0771    0.144278D+04
    18835.0771    0.144996D+04
    18843.0771    0.145640D+04
    18851.0771    0.146231D+04
    18859.0771    0.146798D+04
    18867.0771    0.147371D+04
    18875.0771    0.147985D+04
    18883.0771    0.148680D+04
    18891.0771    0.149496D+04
    18899.0771    0.150479D+04
    18907.0771    0.151677D+04
    18915.0771    0.153139D+04
    18923.0771    0.154918D+04
    18931.0771    0.157067D+04
    18939.0771    0.159641D+04
    18947.0771    0.162693D+04
    18955.0771    0.166277D+04
    18963.0771    0.170445D+04
    18971.0771    0.175245D+04
    18979.0771    0.180725D+04
    18987.0771    0.186926D+04
    18995.0771    0.193884D+04
    19003.0771    0.201628D+04
    19011.0771    0.210182D+04
    19019.0771    0.219558D+04
    19027.0771    0.229761D+04
    19035.0771    0.240782D+04
    19043.0771    0.252605D+04
    19051.0771    0.265198D+04
    19059.0771    0.278518D+04
    19067.0771    0.292507D+04
    19075.0771    0.307092D+04
    19083.0771    0.322190D+04
    19091.0771    0.337699D+04
    19099.0771    0.353508D+04
    19107.0771    0.369490D+04
    19115.0771    0.385508D+04
    19123.0771    0.401415D+04
    19131.0771    0.417053D+04
    19139.0771    0.432260D+04
    19147.0771    0.446868D+04
    19155.0771    0.460708D+04
    19163.0771    0.473612D+04
    19171.0771    0.485413D+04
    19179.0771    0.495955D+04
    19187.0771    0.505088D+04
    19195.0771    0.512677D+04
    19203.0771    0.518598D+04
    19211.0771    0.522753D+04
    19219.0771    0.525056D+04
    19227.0771    0.525445D+04
    19235.0771    0.523883D+04
    19243.0771    0.520358D+04
    19251.0771    0.514882D+04
    19259.0771    0.507489D+04
    19267.0771    0.498243D+04
    19275.0771    0.487226D+04
    19283.0771    0.474547D+04
    19291.0771    0.460331D+04
    19299.0771    0.444721D+04
    19307.0771    0.427875D+04
    19315.0771    0.409966D+04
    19323.0771    0.391171D+04
    19331.0771    0.371672D+04
    19339.0771    0.351652D+04
    19347.0771    0.331304D+04
    19355.0771    0.310803D+04
    19363.0771    0.290321D+04
    19371.0771    0.270021D+04
    19379.0771    0.250053D+04
    19387.0771    0.230558D+04
    19395.0771    0.211657D+04
    19403.0771    0.193456D+04
    19411.0771    0.176043D+04
    19419.0771    0.159492D+04
    19427.0771    0.143859D+04
    19435.0771    0.129183D+04
    19443.0771    0.115489D+04
    19451.0771    0.102786D+04
    19459.0771    0.910713D+03
    19467.0771    0.803304D+03
    19475.0771    0.705387D+03
    19483.0771    0.616615D+03
    19491.0771    0.536582D+03
    19499.0771    0.464819D+03
    19507.0771    0.400840D+03
    19515.0771    0.344099D+03
    19523.0771    0.294040D+03
    19531.0771    0.250114D+03
    19539.0771    0.211787D+03
    19547.0771    0.178515D+03
    19555.0771    0.149780D+03
    19563.0771    0.125082D+03
    19571.0771    0.103974D+03
    19579.0771    0.860432D+02
    19587.0771    0.708727D+02
    19595.0771    0.580988D+02
    19603.0771    0.474179D+02
    19611.0771    0.385037D+02
    19619.0771    0.311056D+02
    19627.0771    0.250304D+02
    19635.0771    0.200540D+02
    19643.0771    0.159745D+02
    19651.0771    0.125827D+02
    19659.0771    0.994687D+01
    19667.0771    0.782299D+01
    19675.0771    0.612498D+01
    19683.0771    0.477063D+01
    19691.0771    0.351897D+01
    19699.0771    0.271936D+01
    19707.0771    0.209361D+01
    19715.0771    0.160317D+01
    19723.0771    0.897065D+00
    19731.0771    0.684674D+00
    19739.0771    0.520028D+00
    19747.0771    0.393059D+00
    19755.0771    0.295649D+00
    19763.0771    0.000000D+00
    19771.0771    0.000000D+00
    19779.0771    0.000000D+00
    19787.0771    0.000000D+00
    19795.0771    0.000000D+00
    19803.0771    0.000000D+00
    19811.0771    0.000000D+00
    19819.0771    0.000000D+00
    19827.0771    0.000000D+00
    19835.0771    0.000000D+00
    19843.0771    0.000000D+00
    19851.0771    0.000000D+00
    19859.0771    0.000000D+00
    19867.0771    0.000000D+00
    19875.0771    0.000000D+00
    19883.0771    0.000000D+00
    19891.0771    0.000000D+00
    19899.0771    0.000000D+00
    19907.0771    0.000000D+00
    19915.0771    0.000000D+00
    19923.0771    0.000000D+00
    19931.0771    0.000000D+00
    19939.0771    0.000000D+00
    19947.0771    0.000000D+00
    19955.0771    0.000000D+00
    19963.0771    0.000000D+00
    19971.0771    0.000000D+00
    19979.0771    0.000000D+00
    19987.0771    0.000000D+00
    19995.0771    0.000000D+00
    20003.0771    0.000000D+00
    20011.0771    0.000000D+00
    20019.0771    0.000000D+00
    20027.0771    0.000000D+00
    20035.0771    0.000000D+00
    20043.0771    0.000000D+00
    20051.0771    0.000000D+00
    20059.0771    0.000000D+00
    20067.0771    0.000000D+00
    20075.0771    0.000000D+00
    20083.0771    0.000000D+00
    20091.0771    0.000000D+00
    20099.0771    0.000000D+00
    20107.0771    0.000000D+00
    20115.0771    0.000000D+00
    20123.0771    0.000000D+00
    20131.0771    0.000000D+00
    20139.0771    0.000000D+00
    20147.0771    0.000000D+00
    20155.0771    0.000000D+00
    20163.0771    0.000000D+00
    20171.0771    0.000000D+00
    20179.0771    0.000000D+00
    20187.0771    0.000000D+00
    20195.0771    0.000000D+00
    20203.0771    0.000000D+00
    20211.0771    0.000000D+00
    20219.0771    0.000000D+00
    20227.0771    0.000000D+00
    20235.0771    0.000000D+00
    20243.0771    0.000000D+00
    20251.0771    0.000000D+00
    20259.0771    0.000000D+00
    20267.0771    0.000000D+00
    20275.0771    0.000000D+00
    20283.0771    0.000000D+00
 -----------------------------

 Leave Link  718 at Thu Nov 27 20:53:56 2025, MaxMem= 12884901888 cpu:             899.8 elap:              29.4
 (Enter /work/home/gaus24/apprepo/gaussian/16-hy/scripts/../app/g16/l9999.exe)

 ----------------------------------------------------------------------

 Electric dipole moment (input orientation):
 (Debye = 10**-18 statcoulomb cm , SI units = C m)
                  (au)            (Debye)         (10**-30 SI)
   Tot        0.698543D+01      0.177552D+02      0.592250D+02
   x          0.611057D+01      0.155315D+02      0.518076D+02
   y         -0.297287D+01     -0.755627D+01     -0.252050D+02
   z          0.161842D+01      0.411360D+01      0.137215D+02

 Dipole polarizability, Alpha (input orientation).
 (esu units = cm**3 , SI units = C**2 m**2 J**-1)
 Alpha(0;0):
               (au)            (10**-24 esu)      (10**-40 SI)
   iso        0.494765D+03      0.733166D+02      0.815757D+02
   aniso      0.667333D+03      0.988886D+02      0.110028D+03
   xx         0.899227D+03      0.133252D+03      0.148263D+03
   yx        -0.367406D+02     -0.544439D+01     -0.605770D+01
   yy         0.391852D+03      0.580665D+02      0.646077D+02
   zx         0.670778D+02      0.993991D+01      0.110596D+02
   zy        -0.100195D+03     -0.148473D+02     -0.165199D+02
   zz         0.193216D+03      0.286316D+02      0.318570D+02

 ----------------------------------------------------------------------

 Dipole orientation:
     6          5.07309074          2.98263123         13.68423101
     7          5.11683244          4.35368806         11.31861910
     6          6.28686037          6.82334750         11.20585968
     6          4.05648823          3.32289607          9.20954259
     6          4.06949983          4.62512231          6.86325783
     6          2.99435593          3.57461240          4.73338584
     6          1.84009624          1.17813468          4.78098585
     6          1.83008617         -0.10600477          7.10598456
     6          2.89614839          0.91140228          9.26264848
     6          0.68983461          0.00513328          2.59298211
     6          0.52697369          0.95797975          0.22750917
     6         -0.66184556         -0.36371107         -1.83270147
     6         -0.84075584          0.57714934         -4.23479473
     6         -2.02463019         -0.76515591         -6.23831039
     6         -3.05071523         -3.24519544         -5.55719902
     6         -4.30152995         -4.90951092         -7.22113644
     6         -5.21132412         -7.21992445         -6.41251684
     6         -4.90727536         -7.96766227         -3.89282900
     6         -3.69201220         -6.38921359         -2.20533368
     6         -2.78025143         -4.06047180         -3.04016773
     8         -1.61485973         -2.63548847         -1.25913972
     6         -2.12007607          0.34549340         -8.63775124
     6         -3.21627323         -0.69830262        -10.85809543
     7         -4.07382028         -1.44150197        -12.73079215
     6         -1.03472120          2.78365286         -9.01829420
     7         -0.15441069          4.76295378         -9.33045399
     1          3.12725790          2.59537981         14.32298005
     1          6.01027523          4.11036805         15.14455573
     1          6.07094088          1.15818535         13.54402875
     1          7.02264766          7.31481382         13.07671351
     1          4.93112989          8.30246611         10.64211211
     1          7.87721867          6.87067765          9.85979972
     1          4.93568152          6.48393873          6.71651297
     1          3.05514474          4.65430022          2.97662190
     1          0.95037835         -1.97146085          7.21441517
     1          2.82965823         -0.17326362         11.00782143
     1         -0.13293070         -1.86285150          2.91851116
     1          1.29949527          2.80737493         -0.25311199
     1         -0.02933913          2.43434025         -4.58183346
     1         -4.56774965         -4.38610158         -9.18625991
     1         -6.16966962         -8.46056818         -7.75076000
     1         -5.62615185         -9.79241246         -3.25536917
     1         -3.41746277         -6.90167153         -0.22877278

 Electric dipole moment (dipole orientation):
 (Debye = 10**-18 statcoulomb cm , SI units = C m)
                  (au)            (Debye)         (10**-30 SI)
   Tot        0.698543D+01      0.177552D+02      0.592250D+02
   x          0.000000D+00      0.000000D+00      0.000000D+00
   y          0.000000D+00      0.000000D+00      0.000000D+00
   z          0.698543D+01      0.177552D+02      0.592250D+02

 Dipole polarizability, Alpha (dipole orientation).
 (esu units = cm**3 , SI units = C**2 m**2 J**-1)
 Alpha(0;0):
               (au)            (10**-24 esu)      (10**-40 SI)
   iso        0.494765D+03      0.733166D+02      0.815757D+02
   aniso      0.667333D+03      0.988886D+02      0.110028D+03
   xx         0.312758D+03      0.463459D+02      0.515668D+02
   yx         0.171750D+03      0.254508D+02      0.283178D+02
   yy         0.327800D+03      0.485749D+02      0.540468D+02
   zx         0.114800D+03      0.170116D+02      0.189279D+02
   zy         0.119893D+03      0.177663D+02      0.197677D+02
   zz         0.843738D+03      0.125029D+03      0.139114D+03

 ----------------------------------------------------------------------

 This type of calculation cannot be archived.


 LIFE IS SO UNCERTAIN - EAT DESSERT FIRST.
 Job cpu time:       0 days  0 hours 15 minutes 54.2 seconds.
 Elapsed time:       0 days  0 hours  0 minutes 30.9 seconds.
 File lengths (MBytes):  RWF=      6 Int=      0 D2E=      0 Chk=      7 Scr=      1
 Normal termination of Gaussian 16 at Thu Nov 27 20:54:05 2025.
