 Entering Gaussian System, Link 0=/work/home/gamess/apprepo/gaussian/16-hy/app/g16/g16
 Input=/work/home/gamess/AutoCalc/tasks/lmx/FCclasses/Huang-Rhys.gjf
 Output=/work/home/gamess/AutoCalc/tasks/lmx/FCclasses/Huang-Rhys.log
 Initial command:
 /work/home/gamess/apprepo/gaussian/16-hy/scripts/../app/g16/l1.exe "/work/home/gamess/apprepo/gaussian/16-hy/scripts/../app/g16/scratch/Gau-5496.inp" -scrdir="/work/home/gamess/apprepo/gaussian/16-hy/scripts/../app/g16/scratch/"
 Default is to use a total of  32 processors:
                               32 via shared-memory
                                1 via Linda
 Entering Link 1 = /work/home/gamess/apprepo/gaussian/16-hy/scripts/../app/g16/l1.exe PID=      5497.
  
 Copyright (c) 1988,1990,1992,1993,1995,1998,2003,2009,2016,
            Gaussian, Inc.  All Rights Reserved.
  
 This is part of the Gaussian(R) 16 program.  It is based on
 the Gaussian(R) 09 system (copyright 2009, Gaussian, Inc.),
 the Gaussian(R) 03 system (copyright 2003, Gaussian, Inc.),
 the Gaussian(R) 98 system (copyright 1998, Gaussian, Inc.),
 the Gaussian(R) 94 system (copyright 1995, Gaussian, Inc.),
 the Gaussian 92(TM) system (copyright 1992, Gaussian, Inc.),
 the Gaussian 90(TM) system (copyright 1990, Gaussian, Inc.),
 the Gaussian 88(TM) system (copyright 1988, Gaussian, Inc.),
 the Gaussian 86(TM) system (copyright 1986, Carnegie Mellon
 University), and the Gaussian 82(TM) system (copyright 1983,
 Carnegie Mellon University). Gaussian is a federally registered
 trademark of Gaussian, Inc.
  
 This software contains proprietary and confidential information,
 including trade secrets, belonging to Gaussian, Inc.
  
 This software is provided under written license and may be
 used, copied, transmitted, or stored only in accord with that
 written license.
  
 The following legend is applicable only to US Government
 contracts under FAR:
  
                    RESTRICTED RIGHTS LEGEND
  
 Use, reproduction and disclosure by the US Government is
 subject to restrictions as set forth in subparagraphs (a)
 and (c) of the Commercial Computer Software - Restricted
 Rights clause in FAR 52.227-19.
  
 Gaussian, Inc.
 340 Quinnipiac St., Bldg. 40, Wallingford CT 06492
  
  
 ---------------------------------------------------------------
 Warning -- This program may not be used in any manner that
 competes with the business of Gaussian, Inc. or will provide
 assistance to any competitor of Gaussian, Inc.  The licensee
 of this program is prohibited from giving any competitor of
 Gaussian, Inc. access to this program.  By using this program,
 the user acknowledges that Gaussian, Inc. is engaged in the
 business of creating and licensing software in the field of
 computational chemistry and represents and warrants to the
 licensee that it is not a competitor of Gaussian, Inc. and that
 it will not use this program in any manner prohibited above.
 ---------------------------------------------------------------
  

 Cite this work as:
 Gaussian 16, Revision A.03,
 M. J. Frisch, G. W. Trucks, H. B. Schlegel, G. E. Scuseria, 
 M. A. Robb, J. R. Cheeseman, G. Scalmani, V. Barone, 
 G. A. Petersson, H. Nakatsuji, X. Li, M. Caricato, A. V. Marenich, 
 J. Bloino, B. G. Janesko, R. Gomperts, B. Mennucci, H. P. Hratchian, 
 J. V. Ortiz, A. F. Izmaylov, J. L. Sonnenberg, D. Williams-Young, 
 F. Ding, F. Lipparini, F. Egidi, J. Goings, B. Peng, A. Petrone, 
 T. Henderson, D. Ranasinghe, V. G. Zakrzewski, J. Gao, N. Rega, 
 G. Zheng, W. Liang, M. Hada, M. Ehara, K. Toyota, R. Fukuda, 
 J. Hasegawa, M. Ishida, T. Nakajima, Y. Honda, O. Kitao, H. Nakai, 
 T. Vreven, K. Throssell, J. A. Montgomery, Jr., J. E. Peralta, 
 F. Ogliaro, M. J. Bearpark, J. J. Heyd, E. N. Brothers, K. N. Kudin, 
 V. N. Staroverov, T. A. Keith, R. Kobayashi, J. Normand, 
 K. Raghavachari, A. P. Rendell, J. C. Burant, S. S. Iyengar, 
 J. Tomasi, M. Cossi, J. M. Millam, M. Klene, C. Adamo, R. Cammi, 
 J. W. Ochterski, R. L. Martin, K. Morokuma, O. Farkas, 
 J. B. Foresman, and D. J. Fox, Gaussian, Inc., Wallingford CT, 2016.
 
 ******************************************
 Gaussian 16:  ES64L-G16RevA.03 25-Dec-2016
                 3-Jan-2025 
 ******************************************
 %oldchk=td_lmx.chk
 Copying data from "td_lmx.chk" to current chk file "/work/home/gamess/apprepo/gaussian/16-hy/scripts/../app/g16/scratch/Gau-5497.chk"
 IOpt=  2 FromEx=T IUOpen= 4 IOptOp= 5 NList=   0 IFRang= 0 IUIn= 4 IUOut= 2.
 -------------------------------------------
 #p geom=allcheck freq(readfc,fcht,readfcht)
 -------------------------------------------
 1/29=7,38=1,172=1/1;
 2/12=2,40=1/2;
 7/8=1,25=11,71=20,121=1/16,18;
 99/5=5/99;
 Leave Link    1 at Fri Jan  3 10:18:56 2025, MaxMem= 12884901888 cpu:              25.7 elap:               0.9
 (Enter /work/home/gamess/apprepo/gaussian/16-hy/scripts/../app/g16/l101.exe)
 Structure from the checkpoint file:  "/work/home/gamess/apprepo/gaussian/16-hy/scripts/../app/g16/scratch/Gau-5497.chk"
 --
 td
 --
 Charge =  1 Multiplicity = 1
 Redundant internal coordinates found in file.  (old form).
 C,0,-0.5075965923,0.0321272063,4.9386677049
 C,0,-1.1983409965,0.1435243912,3.7328983433
 C,0,-0.6302642247,0.1910922591,2.4519001575
 C,0,-1.3489402757,0.2877591634,1.2433643135
 C,0,-0.6602400587,0.269107846,-0.0000000033
 C,0,-1.3489402633,0.2877591634,-1.243364327
 C,0,-0.6302642002,0.1910922591,-2.4519001638
 C,0,-1.1983409593,0.1435243912,-3.7328983553
 C,0,-0.507596543,0.0321272063,-4.93866771
 C,0,0.9977271498,-0.0797664372,5.169078949
 C,0,1.0575418792,-0.1908046743,6.6760481468
 C,0,-0.2455633273,-0.1428582196,7.1931745521
 N,0,-1.1452887265,0.0030932162,6.1471221237
 N,0,-1.1452886651,0.0030932162,-6.1471221351
 C,0,-0.2455632556,-0.1428582196,-7.1931745545
 C,0,1.0575419458,-0.1908046743,-6.6760481363
 C,0,0.9977272014,-0.0797664372,-5.169078939
 C,0,2.1390094729,-0.3226240805,7.5320554033
 C,0,1.9035323555,-0.4094893855,8.9105460954
 C,0,0.5984625702,-0.3658114674,9.4127672097
 C,0,-0.5007140119,-0.2328895179,8.5646277621
 C,0,-0.5007139264,-0.2328895179,-8.5646277671
 C,0,0.5984626641,-0.3658114674,-9.4127672037
 C,0,1.9035324444,-0.4094893855,-8.9105460764
 C,0,2.1390095481,-0.3226240805,-7.532055382
 C,0,-2.8506410812,0.3786540002,1.2495440227
 C,0,-3.3907391515,1.0512173228,-0.0000000169
 C,0,-2.8506410688,0.3786540002,-1.2495440511
 C,0,0.8307875745,0.1745605949,0.0000000041
 C,0,1.6299523034,1.3374540687,0.0000000081
 C,0,3.0232823492,1.1899064959,0.0000000151
 C,0,3.6240262477,-0.0683869075,0.0000000181
 C,0,2.8306048246,-1.2141987857,0.0000000141
 C,0,1.4419198168,-1.0861794224,0.0000000072
 C,0,1.0038966065,2.702527341,0.000000005
 C,0,1.5845930212,-1.3478405436,4.5224039546
 C,0,1.7439466335,1.1815924588,4.697098938
 C,0,1.7439466804,1.1815924588,-4.6970989206
 C,0,1.5845930664,-1.3478405436,-4.5224039388
 C,0,-2.5823448646,0.0578447328,-6.3463691167
 C,0,-2.582344928,0.0578447328,6.3463690909
 C,0,-3.2484662091,-1.3079343944,-6.2748248746
 C,0,-3.2484662717,-1.3079343944,6.2748248421
 H,0,-2.286939186,0.1851543336,3.8020849637
 H,0,0.4545784919,0.1324001797,2.3606856673
 H,0,0.4545785155,0.1324001797,-2.3606856627
 H,0,-2.286939148,0.1851543336,-3.8020849866
 H,0,3.1605115733,-0.3596261315,7.1449600612
 H,0,2.7450920351,-0.5144987953,9.5987676824
 H,0,0.4322730377,-0.4389225512,10.4901114731
 H,0,-1.5138441409,-0.2057874352,8.9682437091
 H,0,-1.5138440514,-0.2057874352,-8.9682437242
 H,0,0.4322731424,-0.4389225512,-10.4901114688
 H,0,2.7450921309,-0.5144987953,-9.598767655
 H,0,3.1605116446,-0.3596261315,-7.1449600297
 H,0,-3.2685512086,-0.642874663,1.3323833284
 H,0,-3.195764241,0.9176663022,2.1441712627
 H,0,-4.4906616187,1.0269122768,-0.0000000224
 H,0,-3.0940943259,2.1140967917,-0.0000000154
 H,0,-3.2685511953,-0.642874663,-1.332383361
 H,0,-3.1957642197,0.9176663022,-2.1441712946
 H,0,3.649231215,2.0868315424,0.0000000182
 H,0,4.7137330985,-0.1518380199,0.0000000235
 H,0,3.2889032958,-2.2061972481,0.0000000164
 H,0,0.8115177755,-1.9796747161,0.000000004
 H,0,0.3617844925,2.8469563144,0.8833172403
 H,0,1.7690039965,3.4910416983,0.0000000088
 H,0,0.3617845013,2.8469563144,-0.8833172367
 H,0,2.640500406,-1.4527038528,4.8135083406
 H,0,1.539267707,-1.3032922394,3.425451123
 H,0,1.0453257045,-2.2462396616,4.8561357356
 H,0,1.3216745403,2.0857726399,5.1590034839
 H,0,2.8036231536,1.1108653443,4.9846530034
 H,0,1.6971993746,1.2953709357,3.6052121227
 H,0,1.6971994106,1.2953709357,-3.6052121058
 H,0,2.8036232034,1.1108653443,-4.9846529755
 H,0,1.3216745918,2.0857726399,-5.1590034707
 H,0,1.5392677412,-1.3032922394,-3.4254511077
 H,0,1.0453257529,-2.2462396616,-4.8561357252
 H,0,2.640500454,-1.4527038528,-4.8135083143
 H,0,-3.0064073886,0.7453167953,-5.6008729849
 H,0,-2.7588228383,0.5256332762,-7.3249643641
 H,0,-2.7588229114,0.5256332762,7.3249643366
 H,0,-3.0064074445,0.7453167953,5.6008729549
 H,0,-4.3298881835,-1.199491596,-6.4415718168
 H,0,-2.8494569129,-1.9853027497,-7.0439751091
 H,0,-3.0979381784,-1.7750275891,-5.2905304496
 H,0,-4.3298882478,-1.199491596,6.4415717735
 H,0,-3.0979382312,-1.7750275891,5.2905304186
 H,0,-2.8494569832,-1.9853027497,7.0439750807
 Recover connectivity data from disk.
 ITRead=  0  0  0  0  0  0  0  0  0  0  0  0  0  0  0  0  0  0  0  0
 ITRead=  0  0  0  0  0  0  0  0  0  0  0  0  0  0  0  0  0  0  0  0
 ITRead=  0  0  0  0  0  0  0  0  0  0  0  0  0  0  0  0  0  0  0  0
 ITRead=  0  0  0  0  0  0  0  0  0  0  0  0  0  0  0  0  0  0  0  0
 ITRead=  0  0  0  0  0  0  0  0  0  0
 MicOpt= -1 -1 -1 -1 -1 -1 -1 -1 -1 -1 -1 -1 -1 -1 -1 -1 -1 -1 -1 -1
 MicOpt= -1 -1 -1 -1 -1 -1 -1 -1 -1 -1 -1 -1 -1 -1 -1 -1 -1 -1 -1 -1
 MicOpt= -1 -1 -1 -1 -1 -1 -1 -1 -1 -1 -1 -1 -1 -1 -1 -1 -1 -1 -1 -1
 MicOpt= -1 -1 -1 -1 -1 -1 -1 -1 -1 -1 -1 -1 -1 -1 -1 -1 -1 -1 -1 -1
 MicOpt= -1 -1 -1 -1 -1 -1 -1 -1 -1 -1
                           ----------------------------
                           !    Current Parameters    !
                           ! (Angstroms and Degrees)  !
 --------------------------                            --------------------------
 ! Name  Definition              Value          Derivative Info.                !
 --------------------------------------------------------------------------------
 ! R1    R(1,2)                  1.3941         estimate D2E/DX2                !
 ! R2    R(1,10)                 1.527          estimate D2E/DX2                !
 ! R3    R(1,13)                 1.3667         estimate D2E/DX2                !
 ! R4    R(2,3)                  1.4021         estimate D2E/DX2                !
 ! R5    R(2,44)                 1.0916         estimate D2E/DX2                !
 ! R6    R(3,4)                  1.4094         estimate D2E/DX2                !
 ! R7    R(3,45)                 1.0903         estimate D2E/DX2                !
 ! R8    R(4,5)                  1.4215         estimate D2E/DX2                !
 ! R9    R(4,26)                 1.5045         estimate D2E/DX2                !
 ! R10   R(5,6)                  1.4215         estimate D2E/DX2                !
 ! R11   R(5,29)                 1.494          estimate D2E/DX2                !
 ! R12   R(6,7)                  1.4094         estimate D2E/DX2                !
 ! R13   R(6,28)                 1.5045         estimate D2E/DX2                !
 ! R14   R(7,8)                  1.4021         estimate D2E/DX2                !
 ! R15   R(7,46)                 1.0903         estimate D2E/DX2                !
 ! R16   R(8,9)                  1.3941         estimate D2E/DX2                !
 ! R17   R(8,47)                 1.0916         estimate D2E/DX2                !
 ! R18   R(9,14)                 1.3667         estimate D2E/DX2                !
 ! R19   R(9,17)                 1.527          estimate D2E/DX2                !
 ! R20   R(10,11)                1.5122         estimate D2E/DX2                !
 ! R21   R(10,36)                1.5397         estimate D2E/DX2                !
 ! R22   R(10,37)                1.5397         estimate D2E/DX2                !
 ! R23   R(11,12)                1.4028         estimate D2E/DX2                !
 ! R24   R(11,18)                1.3855         estimate D2E/DX2                !
 ! R25   R(12,13)                1.3875         estimate D2E/DX2                !
 ! R26   R(12,21)                1.3979         estimate D2E/DX2                !
 ! R27   R(13,41)                1.4518         estimate D2E/DX2                !
 ! R28   R(14,15)                1.3875         estimate D2E/DX2                !
 ! R29   R(14,40)                1.4518         estimate D2E/DX2                !
 ! R30   R(15,16)                1.4028         estimate D2E/DX2                !
 ! R31   R(15,22)                1.3979         estimate D2E/DX2                !
 ! R32   R(16,17)                1.5122         estimate D2E/DX2                !
 ! R33   R(16,25)                1.3855         estimate D2E/DX2                !
 ! R34   R(17,38)                1.5397         estimate D2E/DX2                !
 ! R35   R(17,39)                1.5397         estimate D2E/DX2                !
 ! R36   R(18,19)                1.4012         estimate D2E/DX2                !
 ! R37   R(18,48)                1.093          estimate D2E/DX2                !
 ! R38   R(19,20)                1.3991         estimate D2E/DX2                !
 ! R39   R(19,49)                1.0922         estimate D2E/DX2                !
 ! R40   R(20,21)                1.3947         estimate D2E/DX2                !
 ! R41   R(20,50)                1.0925         estimate D2E/DX2                !
 ! R42   R(21,51)                1.0909         estimate D2E/DX2                !
 ! R43   R(22,23)                1.3947         estimate D2E/DX2                !
 ! R44   R(22,52)                1.0909         estimate D2E/DX2                !
 ! R45   R(23,24)                1.3991         estimate D2E/DX2                !
 ! R46   R(23,53)                1.0925         estimate D2E/DX2                !
 ! R47   R(24,25)                1.4012         estimate D2E/DX2                !
 ! R48   R(24,54)                1.0922         estimate D2E/DX2                !
 ! R49   R(25,55)                1.093          estimate D2E/DX2                !
 ! R50   R(26,27)                1.5184         estimate D2E/DX2                !
 ! R51   R(26,56)                1.1068         estimate D2E/DX2                !
 ! R52   R(26,57)                1.1            estimate D2E/DX2                !
 ! R53   R(27,28)                1.5184         estimate D2E/DX2                !
 ! R54   R(27,58)                1.1002         estimate D2E/DX2                !
 ! R55   R(27,59)                1.1035         estimate D2E/DX2                !
 ! R56   R(28,60)                1.1068         estimate D2E/DX2                !
 ! R57   R(28,61)                1.1            estimate D2E/DX2                !
 ! R58   R(29,30)                1.411          estimate D2E/DX2                !
 ! R59   R(29,34)                1.4011         estimate D2E/DX2                !
 ! R60   R(30,31)                1.4011         estimate D2E/DX2                !
 ! R61   R(30,35)                1.5018         estimate D2E/DX2                !
 ! R62   R(31,32)                1.3943         estimate D2E/DX2                !
 ! R63   R(31,62)                1.0937         estimate D2E/DX2                !
 ! R64   R(32,33)                1.3937         estimate D2E/DX2                !
 ! R65   R(32,63)                1.0929         estimate D2E/DX2                !
 ! R66   R(33,34)                1.3946         estimate D2E/DX2                !
 ! R67   R(33,64)                1.0927         estimate D2E/DX2                !
 ! R68   R(34,65)                1.0935         estimate D2E/DX2                !
 ! R69   R(35,66)                1.1016         estimate D2E/DX2                !
 ! R70   R(35,67)                1.0987         estimate D2E/DX2                !
 ! R71   R(35,68)                1.1016         estimate D2E/DX2                !
 ! R72   R(36,69)                1.1003         estimate D2E/DX2                !
 ! R73   R(36,70)                1.0988         estimate D2E/DX2                !
 ! R74   R(36,71)                1.0997         estimate D2E/DX2                !
 ! R75   R(37,72)                1.0996         estimate D2E/DX2                !
 ! R76   R(37,73)                1.1003         estimate D2E/DX2                !
 ! R77   R(37,74)                1.0988         estimate D2E/DX2                !
 ! R78   R(38,75)                1.0988         estimate D2E/DX2                !
 ! R79   R(38,76)                1.1003         estimate D2E/DX2                !
 ! R80   R(38,77)                1.0996         estimate D2E/DX2                !
 ! R81   R(39,78)                1.0988         estimate D2E/DX2                !
 ! R82   R(39,79)                1.0997         estimate D2E/DX2                !
 ! R83   R(39,80)                1.1003         estimate D2E/DX2                !
 ! R84   R(40,42)                1.5212         estimate D2E/DX2                !
 ! R85   R(40,81)                1.0992         estimate D2E/DX2                !
 ! R86   R(40,82)                1.0989         estimate D2E/DX2                !
 ! R87   R(41,43)                1.5212         estimate D2E/DX2                !
 ! R88   R(41,83)                1.0989         estimate D2E/DX2                !
 ! R89   R(41,84)                1.0992         estimate D2E/DX2                !
 ! R90   R(42,85)                1.0996         estimate D2E/DX2                !
 ! R91   R(42,86)                1.0998         estimate D2E/DX2                !
 ! R92   R(42,87)                1.0999         estimate D2E/DX2                !
 ! R93   R(43,88)                1.0996         estimate D2E/DX2                !
 ! R94   R(43,89)                1.0999         estimate D2E/DX2                !
 ! R95   R(43,90)                1.0998         estimate D2E/DX2                !
 ! A1    A(2,1,10)             128.6703         estimate D2E/DX2                !
 ! A2    A(2,1,13)             122.3636         estimate D2E/DX2                !
 ! A3    A(10,1,13)            108.9657         estimate D2E/DX2                !
 ! A4    A(1,2,3)              126.3116         estimate D2E/DX2                !
 ! A5    A(1,2,44)             116.2545         estimate D2E/DX2                !
 ! A6    A(3,2,44)             117.4297         estimate D2E/DX2                !
 ! A7    A(2,3,4)              125.3903         estimate D2E/DX2                !
 ! A8    A(2,3,45)             118.539          estimate D2E/DX2                !
 ! A9    A(4,3,45)             116.0618         estimate D2E/DX2                !
 ! A10   A(3,4,5)              120.1381         estimate D2E/DX2                !
 ! A11   A(3,4,26)             120.6374         estimate D2E/DX2                !
 ! A12   A(5,4,26)             119.2086         estimate D2E/DX2                !
 ! A13   A(4,5,6)              122.018          estimate D2E/DX2                !
 ! A14   A(4,5,29)             118.9701         estimate D2E/DX2                !
 ! A15   A(6,5,29)             118.9701         estimate D2E/DX2                !
 ! A16   A(5,6,7)              120.1381         estimate D2E/DX2                !
 ! A17   A(5,6,28)             119.2086         estimate D2E/DX2                !
 ! A18   A(7,6,28)             120.6374         estimate D2E/DX2                !
 ! A19   A(6,7,8)              125.3903         estimate D2E/DX2                !
 ! A20   A(6,7,46)             116.0618         estimate D2E/DX2                !
 ! A21   A(8,7,46)             118.539          estimate D2E/DX2                !
 ! A22   A(7,8,9)              126.3116         estimate D2E/DX2                !
 ! A23   A(7,8,47)             117.4297         estimate D2E/DX2                !
 ! A24   A(9,8,47)             116.2545         estimate D2E/DX2                !
 ! A25   A(8,9,14)             122.3636         estimate D2E/DX2                !
 ! A26   A(8,9,17)             128.6703         estimate D2E/DX2                !
 ! A27   A(14,9,17)            108.9657         estimate D2E/DX2                !
 ! A28   A(1,10,11)            101.2297         estimate D2E/DX2                !
 ! A29   A(1,10,36)            111.8844         estimate D2E/DX2                !
 ! A30   A(1,10,37)            111.8082         estimate D2E/DX2                !
 ! A31   A(11,10,36)           110.0593         estimate D2E/DX2                !
 ! A32   A(11,10,37)           110.2708         estimate D2E/DX2                !
 ! A33   A(36,10,37)           111.176          estimate D2E/DX2                !
 ! A34   A(10,11,12)           109.1538         estimate D2E/DX2                !
 ! A35   A(10,11,18)           130.8079         estimate D2E/DX2                !
 ! A36   A(12,11,18)           120.0382         estimate D2E/DX2                !
 ! A37   A(11,12,13)           109.1508         estimate D2E/DX2                !
 ! A38   A(11,12,21)           121.9397         estimate D2E/DX2                !
 ! A39   A(13,12,21)           128.9094         estimate D2E/DX2                !
 ! A40   A(1,13,12)            111.4879         estimate D2E/DX2                !
 ! A41   A(1,13,41)            125.6189         estimate D2E/DX2                !
 ! A42   A(12,13,41)           122.845          estimate D2E/DX2                !
 ! A43   A(9,14,15)            111.4879         estimate D2E/DX2                !
 ! A44   A(9,14,40)            125.6189         estimate D2E/DX2                !
 ! A45   A(15,14,40)           122.845          estimate D2E/DX2                !
 ! A46   A(14,15,16)           109.1508         estimate D2E/DX2                !
 ! A47   A(14,15,22)           128.9094         estimate D2E/DX2                !
 ! A48   A(16,15,22)           121.9397         estimate D2E/DX2                !
 ! A49   A(15,16,17)           109.1538         estimate D2E/DX2                !
 ! A50   A(15,16,25)           120.0382         estimate D2E/DX2                !
 ! A51   A(17,16,25)           130.8079         estimate D2E/DX2                !
 ! A52   A(9,17,16)            101.2297         estimate D2E/DX2                !
 ! A53   A(9,17,38)            111.8082         estimate D2E/DX2                !
 ! A54   A(9,17,39)            111.8844         estimate D2E/DX2                !
 ! A55   A(16,17,38)           110.2708         estimate D2E/DX2                !
 ! A56   A(16,17,39)           110.0593         estimate D2E/DX2                !
 ! A57   A(38,17,39)           111.176          estimate D2E/DX2                !
 ! A58   A(11,18,19)           118.8518         estimate D2E/DX2                !
 ! A59   A(11,18,48)           120.9235         estimate D2E/DX2                !
 ! A60   A(19,18,48)           120.2246         estimate D2E/DX2                !
 ! A61   A(18,19,20)           120.5308         estimate D2E/DX2                !
 ! A62   A(18,19,49)           119.7621         estimate D2E/DX2                !
 ! A63   A(20,19,49)           119.7069         estimate D2E/DX2                !
 ! A64   A(19,20,21)           121.3219         estimate D2E/DX2                !
 ! A65   A(19,20,50)           119.5898         estimate D2E/DX2                !
 ! A66   A(21,20,50)           119.0881         estimate D2E/DX2                !
 ! A67   A(12,21,20)           117.3163         estimate D2E/DX2                !
 ! A68   A(12,21,51)           122.0662         estimate D2E/DX2                !
 ! A69   A(20,21,51)           120.617          estimate D2E/DX2                !
 ! A70   A(15,22,23)           117.3163         estimate D2E/DX2                !
 ! A71   A(15,22,52)           122.0662         estimate D2E/DX2                !
 ! A72   A(23,22,52)           120.617          estimate D2E/DX2                !
 ! A73   A(22,23,24)           121.3219         estimate D2E/DX2                !
 ! A74   A(22,23,53)           119.0881         estimate D2E/DX2                !
 ! A75   A(24,23,53)           119.5898         estimate D2E/DX2                !
 ! A76   A(23,24,25)           120.5308         estimate D2E/DX2                !
 ! A77   A(23,24,54)           119.7069         estimate D2E/DX2                !
 ! A78   A(25,24,54)           119.7621         estimate D2E/DX2                !
 ! A79   A(16,25,24)           118.8518         estimate D2E/DX2                !
 ! A80   A(16,25,55)           120.9235         estimate D2E/DX2                !
 ! A81   A(24,25,55)           120.2246         estimate D2E/DX2                !
 ! A82   A(4,26,27)            112.2371         estimate D2E/DX2                !
 ! A83   A(4,26,56)            108.7496         estimate D2E/DX2                !
 ! A84   A(4,26,57)            110.25           estimate D2E/DX2                !
 ! A85   A(27,26,56)           109.6399         estimate D2E/DX2                !
 ! A86   A(27,26,57)           109.9166         estimate D2E/DX2                !
 ! A87   A(56,26,57)           105.838          estimate D2E/DX2                !
 ! A88   A(26,27,28)           110.764          estimate D2E/DX2                !
 ! A89   A(26,27,58)           110.2331         estimate D2E/DX2                !
 ! A90   A(26,27,59)           109.3311         estimate D2E/DX2                !
 ! A91   A(28,27,58)           110.2331         estimate D2E/DX2                !
 ! A92   A(28,27,59)           109.3311         estimate D2E/DX2                !
 ! A93   A(58,27,59)           106.86           estimate D2E/DX2                !
 ! A94   A(6,28,27)            112.2371         estimate D2E/DX2                !
 ! A95   A(6,28,60)            108.7496         estimate D2E/DX2                !
 ! A96   A(6,28,61)            110.25           estimate D2E/DX2                !
 ! A97   A(27,28,60)           109.6399         estimate D2E/DX2                !
 ! A98   A(27,28,61)           109.9166         estimate D2E/DX2                !
 ! A99   A(60,28,61)           105.838          estimate D2E/DX2                !
 ! A100  A(5,29,30)            120.8694         estimate D2E/DX2                !
 ! A101  A(5,29,34)            119.4897         estimate D2E/DX2                !
 ! A102  A(30,29,34)           119.641          estimate D2E/DX2                !
 ! A103  A(29,30,31)           118.4528         estimate D2E/DX2                !
 ! A104  A(29,30,35)           120.865          estimate D2E/DX2                !
 ! A105  A(31,30,35)           120.6822         estimate D2E/DX2                !
 ! A106  A(30,31,32)           121.5659         estimate D2E/DX2                !
 ! A107  A(30,31,62)           118.8657         estimate D2E/DX2                !
 ! A108  A(32,31,62)           119.5684         estimate D2E/DX2                !
 ! A109  A(31,32,33)           119.7781         estimate D2E/DX2                !
 ! A110  A(31,32,63)           119.9003         estimate D2E/DX2                !
 ! A111  A(33,32,63)           120.3216         estimate D2E/DX2                !
 ! A112  A(32,33,34)           119.4337         estimate D2E/DX2                !
 ! A113  A(32,33,64)           120.5025         estimate D2E/DX2                !
 ! A114  A(34,33,64)           120.0638         estimate D2E/DX2                !
 ! A115  A(29,34,33)           121.1284         estimate D2E/DX2                !
 ! A116  A(29,34,65)           118.9339         estimate D2E/DX2                !
 ! A117  A(33,34,65)           119.9377         estimate D2E/DX2                !
 ! A118  A(30,35,66)           111.2341         estimate D2E/DX2                !
 ! A119  A(30,35,67)           111.2258         estimate D2E/DX2                !
 ! A120  A(30,35,68)           111.2341         estimate D2E/DX2                !
 ! A121  A(66,35,67)           108.1695         estimate D2E/DX2                !
 ! A122  A(66,35,68)           106.6208         estimate D2E/DX2                !
 ! A123  A(67,35,68)           108.1695         estimate D2E/DX2                !
 ! A124  A(10,36,69)           109.4602         estimate D2E/DX2                !
 ! A125  A(10,36,70)           111.7273         estimate D2E/DX2                !
 ! A126  A(10,36,71)           111.0061         estimate D2E/DX2                !
 ! A127  A(69,36,70)           107.913          estimate D2E/DX2                !
 ! A128  A(69,36,71)           108.2067         estimate D2E/DX2                !
 ! A129  A(70,36,71)           108.413          estimate D2E/DX2                !
 ! A130  A(10,37,72)           111.0226         estimate D2E/DX2                !
 ! A131  A(10,37,73)           109.5116         estimate D2E/DX2                !
 ! A132  A(10,37,74)           111.6433         estimate D2E/DX2                !
 ! A133  A(72,37,73)           108.235          estimate D2E/DX2                !
 ! A134  A(72,37,74)           108.4169         estimate D2E/DX2                !
 ! A135  A(73,37,74)           107.8987         estimate D2E/DX2                !
 ! A136  A(17,38,75)           111.6433         estimate D2E/DX2                !
 ! A137  A(17,38,76)           109.5116         estimate D2E/DX2                !
 ! A138  A(17,38,77)           111.0226         estimate D2E/DX2                !
 ! A139  A(75,38,76)           107.8987         estimate D2E/DX2                !
 ! A140  A(75,38,77)           108.4169         estimate D2E/DX2                !
 ! A141  A(76,38,77)           108.235          estimate D2E/DX2                !
 ! A142  A(17,39,78)           111.7273         estimate D2E/DX2                !
 ! A143  A(17,39,79)           111.0061         estimate D2E/DX2                !
 ! A144  A(17,39,80)           109.4602         estimate D2E/DX2                !
 ! A145  A(78,39,79)           108.413          estimate D2E/DX2                !
 ! A146  A(78,39,80)           107.913          estimate D2E/DX2                !
 ! A147  A(79,39,80)           108.2067         estimate D2E/DX2                !
 ! A148  A(14,40,42)           113.1481         estimate D2E/DX2                !
 ! A149  A(14,40,81)           108.2026         estimate D2E/DX2                !
 ! A150  A(14,40,82)           107.2909         estimate D2E/DX2                !
 ! A151  A(42,40,81)           111.1426         estimate D2E/DX2                !
 ! A152  A(42,40,82)           110.7162         estimate D2E/DX2                !
 ! A153  A(81,40,82)           106.0081         estimate D2E/DX2                !
 ! A154  A(13,41,43)           113.1481         estimate D2E/DX2                !
 ! A155  A(13,41,83)           107.2909         estimate D2E/DX2                !
 ! A156  A(13,41,84)           108.2026         estimate D2E/DX2                !
 ! A157  A(43,41,83)           110.7162         estimate D2E/DX2                !
 ! A158  A(43,41,84)           111.1426         estimate D2E/DX2                !
 ! A159  A(83,41,84)           106.0081         estimate D2E/DX2                !
 ! A160  A(40,42,85)           109.5712         estimate D2E/DX2                !
 ! A161  A(40,42,86)           111.1735         estimate D2E/DX2                !
 ! A162  A(40,42,87)           111.312          estimate D2E/DX2                !
 ! A163  A(85,42,86)           108.1493         estimate D2E/DX2                !
 ! A164  A(85,42,87)           108.1921         estimate D2E/DX2                !
 ! A165  A(86,42,87)           108.3396         estimate D2E/DX2                !
 ! A166  A(41,43,88)           109.5712         estimate D2E/DX2                !
 ! A167  A(41,43,89)           111.312          estimate D2E/DX2                !
 ! A168  A(41,43,90)           111.1735         estimate D2E/DX2                !
 ! A169  A(88,43,89)           108.1921         estimate D2E/DX2                !
 ! A170  A(88,43,90)           108.1493         estimate D2E/DX2                !
 ! A171  A(89,43,90)           108.3396         estimate D2E/DX2                !
 ! D1    D(10,1,2,3)            -0.7638         estimate D2E/DX2                !
 ! D2    D(10,1,2,44)          178.4595         estimate D2E/DX2                !
 ! D3    D(13,1,2,3)           179.4902         estimate D2E/DX2                !
 ! D4    D(13,1,2,44)           -1.2865         estimate D2E/DX2                !
 ! D5    D(2,1,10,11)         -179.0445         estimate D2E/DX2                !
 ! D6    D(2,1,10,36)          -61.8769         estimate D2E/DX2                !
 ! D7    D(2,1,10,37)           63.5752         estimate D2E/DX2                !
 ! D8    D(13,1,10,11)           0.7286         estimate D2E/DX2                !
 ! D9    D(13,1,10,36)         117.8963         estimate D2E/DX2                !
 ! D10   D(13,1,10,37)        -116.6516         estimate D2E/DX2                !
 ! D11   D(2,1,13,12)          178.6446         estimate D2E/DX2                !
 ! D12   D(2,1,13,41)            1.1221         estimate D2E/DX2                !
 ! D13   D(10,1,13,12)          -1.1458         estimate D2E/DX2                !
 ! D14   D(10,1,13,41)        -178.6683         estimate D2E/DX2                !
 ! D15   D(1,2,3,4)            179.184          estimate D2E/DX2                !
 ! D16   D(1,2,3,45)             0.316          estimate D2E/DX2                !
 ! D17   D(44,2,3,4)            -0.0312         estimate D2E/DX2                !
 ! D18   D(44,2,3,45)         -178.8992         estimate D2E/DX2                !
 ! D19   D(2,3,4,5)           -177.2485         estimate D2E/DX2                !
 ! D20   D(2,3,4,26)             1.2916         estimate D2E/DX2                !
 ! D21   D(45,3,4,5)             1.6445         estimate D2E/DX2                !
 ! D22   D(45,3,4,26)         -179.8154         estimate D2E/DX2                !
 ! D23   D(3,4,5,6)            176.3698         estimate D2E/DX2                !
 ! D24   D(3,4,5,29)            -1.256          estimate D2E/DX2                !
 ! D25   D(26,4,5,6)            -2.1912         estimate D2E/DX2                !
 ! D26   D(26,4,5,29)         -179.8169         estimate D2E/DX2                !
 ! D27   D(3,4,26,27)          155.4784         estimate D2E/DX2                !
 ! D28   D(3,4,26,56)          -83.0385         estimate D2E/DX2                !
 ! D29   D(3,4,26,57)           32.5833         estimate D2E/DX2                !
 ! D30   D(5,4,26,27)          -25.968          estimate D2E/DX2                !
 ! D31   D(5,4,26,56)           95.5151         estimate D2E/DX2                !
 ! D32   D(5,4,26,57)         -148.8631         estimate D2E/DX2                !
 ! D33   D(4,5,6,7)           -176.3698         estimate D2E/DX2                !
 ! D34   D(4,5,6,28)             2.1912         estimate D2E/DX2                !
 ! D35   D(29,5,6,7)             1.256          estimate D2E/DX2                !
 ! D36   D(29,5,6,28)          179.8169         estimate D2E/DX2                !
 ! D37   D(4,5,29,30)          -91.1505         estimate D2E/DX2                !
 ! D38   D(4,5,29,34)           88.8495         estimate D2E/DX2                !
 ! D39   D(6,5,29,30)           91.1505         estimate D2E/DX2                !
 ! D40   D(6,5,29,34)          -88.8495         estimate D2E/DX2                !
 ! D41   D(5,6,7,8)            177.2485         estimate D2E/DX2                !
 ! D42   D(5,6,7,46)            -1.6445         estimate D2E/DX2                !
 ! D43   D(28,6,7,8)            -1.2916         estimate D2E/DX2                !
 ! D44   D(28,6,7,46)          179.8154         estimate D2E/DX2                !
 ! D45   D(5,6,28,27)           25.968          estimate D2E/DX2                !
 ! D46   D(5,6,28,60)          -95.5151         estimate D2E/DX2                !
 ! D47   D(5,6,28,61)          148.8631         estimate D2E/DX2                !
 ! D48   D(7,6,28,27)         -155.4784         estimate D2E/DX2                !
 ! D49   D(7,6,28,60)           83.0385         estimate D2E/DX2                !
 ! D50   D(7,6,28,61)          -32.5833         estimate D2E/DX2                !
 ! D51   D(6,7,8,9)           -179.184          estimate D2E/DX2                !
 ! D52   D(6,7,8,47)             0.0312         estimate D2E/DX2                !
 ! D53   D(46,7,8,9)            -0.316          estimate D2E/DX2                !
 ! D54   D(46,7,8,47)          178.8992         estimate D2E/DX2                !
 ! D55   D(7,8,9,14)          -179.4902         estimate D2E/DX2                !
 ! D56   D(7,8,9,17)             0.7638         estimate D2E/DX2                !
 ! D57   D(47,8,9,14)            1.2865         estimate D2E/DX2                !
 ! D58   D(47,8,9,17)         -178.4595         estimate D2E/DX2                !
 ! D59   D(8,9,14,15)         -178.6446         estimate D2E/DX2                !
 ! D60   D(8,9,14,40)           -1.1221         estimate D2E/DX2                !
 ! D61   D(17,9,14,15)           1.1458         estimate D2E/DX2                !
 ! D62   D(17,9,14,40)         178.6683         estimate D2E/DX2                !
 ! D63   D(8,9,17,16)          179.0445         estimate D2E/DX2                !
 ! D64   D(8,9,17,38)          -63.5752         estimate D2E/DX2                !
 ! D65   D(8,9,17,39)           61.8769         estimate D2E/DX2                !
 ! D66   D(14,9,17,16)          -0.7286         estimate D2E/DX2                !
 ! D67   D(14,9,17,38)         116.6516         estimate D2E/DX2                !
 ! D68   D(14,9,17,39)        -117.8963         estimate D2E/DX2                !
 ! D69   D(1,10,11,12)          -0.0895         estimate D2E/DX2                !
 ! D70   D(1,10,11,18)         179.8752         estimate D2E/DX2                !
 ! D71   D(36,10,11,12)       -118.5824         estimate D2E/DX2                !
 ! D72   D(36,10,11,18)         61.3824         estimate D2E/DX2                !
 ! D73   D(37,10,11,12)        118.4059         estimate D2E/DX2                !
 ! D74   D(37,10,11,18)        -61.6294         estimate D2E/DX2                !
 ! D75   D(1,10,36,69)        -173.2021         estimate D2E/DX2                !
 ! D76   D(1,10,36,70)          67.3284         estimate D2E/DX2                !
 ! D77   D(1,10,36,71)         -53.8192         estimate D2E/DX2                !
 ! D78   D(11,10,36,69)        -61.4808         estimate D2E/DX2                !
 ! D79   D(11,10,36,70)        179.0497         estimate D2E/DX2                !
 ! D80   D(11,10,36,71)         57.902          estimate D2E/DX2                !
 ! D81   D(37,10,36,69)         60.9984         estimate D2E/DX2                !
 ! D82   D(37,10,36,70)        -58.4711         estimate D2E/DX2                !
 ! D83   D(37,10,36,71)       -179.6187         estimate D2E/DX2                !
 ! D84   D(1,10,37,72)          54.0561         estimate D2E/DX2                !
 ! D85   D(1,10,37,73)         173.5174         estimate D2E/DX2                !
 ! D86   D(1,10,37,74)         -67.0502         estimate D2E/DX2                !
 ! D87   D(11,10,37,72)        -57.7451         estimate D2E/DX2                !
 ! D88   D(11,10,37,73)         61.7161         estimate D2E/DX2                !
 ! D89   D(11,10,37,74)       -178.8514         estimate D2E/DX2                !
 ! D90   D(36,10,37,72)        179.8979         estimate D2E/DX2                !
 ! D91   D(36,10,37,73)        -60.6408         estimate D2E/DX2                !
 ! D92   D(36,10,37,74)         58.7916         estimate D2E/DX2                !
 ! D93   D(10,11,12,13)         -0.5693         estimate D2E/DX2                !
 ! D94   D(10,11,12,21)        179.5623         estimate D2E/DX2                !
 ! D95   D(18,11,12,13)        179.4615         estimate D2E/DX2                !
 ! D96   D(18,11,12,21)         -0.4069         estimate D2E/DX2                !
 ! D97   D(10,11,18,19)       -179.7984         estimate D2E/DX2                !
 ! D98   D(10,11,18,48)          0.1535         estimate D2E/DX2                !
 ! D99   D(12,11,18,19)          0.1632         estimate D2E/DX2                !
 ! D100  D(12,11,18,48)       -179.8849         estimate D2E/DX2                !
 ! D101  D(11,12,13,1)           1.0907         estimate D2E/DX2                !
 ! D102  D(11,12,13,41)        178.6936         estimate D2E/DX2                !
 ! D103  D(21,12,13,1)        -179.0528         estimate D2E/DX2                !
 ! D104  D(21,12,13,41)         -1.4499         estimate D2E/DX2                !
 ! D105  D(11,12,21,20)          0.3701         estimate D2E/DX2                !
 ! D106  D(11,12,21,51)       -179.3803         estimate D2E/DX2                !
 ! D107  D(13,12,21,20)       -179.4702         estimate D2E/DX2                !
 ! D108  D(13,12,21,51)          0.7794         estimate D2E/DX2                !
 ! D109  D(1,13,41,43)          86.3839         estimate D2E/DX2                !
 ! D110  D(1,13,41,83)        -151.204          estimate D2E/DX2                !
 ! D111  D(1,13,41,84)         -37.225          estimate D2E/DX2                !
 ! D112  D(12,13,41,43)        -90.872          estimate D2E/DX2                !
 ! D113  D(12,13,41,83)         31.5401         estimate D2E/DX2                !
 ! D114  D(12,13,41,84)        145.5191         estimate D2E/DX2                !
 ! D115  D(9,14,15,16)          -1.0907         estimate D2E/DX2                !
 ! D116  D(9,14,15,22)         179.0528         estimate D2E/DX2                !
 ! D117  D(40,14,15,16)       -178.6936         estimate D2E/DX2                !
 ! D118  D(40,14,15,22)          1.4499         estimate D2E/DX2                !
 ! D119  D(9,14,40,42)         -86.3839         estimate D2E/DX2                !
 ! D120  D(9,14,40,81)          37.225          estimate D2E/DX2                !
 ! D121  D(9,14,40,82)         151.204          estimate D2E/DX2                !
 ! D122  D(15,14,40,42)         90.872          estimate D2E/DX2                !
 ! D123  D(15,14,40,81)       -145.5191         estimate D2E/DX2                !
 ! D124  D(15,14,40,82)        -31.5401         estimate D2E/DX2                !
 ! D125  D(14,15,16,17)          0.5693         estimate D2E/DX2                !
 ! D126  D(14,15,16,25)       -179.4615         estimate D2E/DX2                !
 ! D127  D(22,15,16,17)       -179.5623         estimate D2E/DX2                !
 ! D128  D(22,15,16,25)          0.4069         estimate D2E/DX2                !
 ! D129  D(14,15,22,23)        179.4702         estimate D2E/DX2                !
 ! D130  D(14,15,22,52)         -0.7794         estimate D2E/DX2                !
 ! D131  D(16,15,22,23)         -0.3701         estimate D2E/DX2                !
 ! D132  D(16,15,22,52)        179.3803         estimate D2E/DX2                !
 ! D133  D(15,16,17,9)           0.0895         estimate D2E/DX2                !
 ! D134  D(15,16,17,38)       -118.4059         estimate D2E/DX2                !
 ! D135  D(15,16,17,39)        118.5824         estimate D2E/DX2                !
 ! D136  D(25,16,17,9)        -179.8752         estimate D2E/DX2                !
 ! D137  D(25,16,17,38)         61.6294         estimate D2E/DX2                !
 ! D138  D(25,16,17,39)        -61.3824         estimate D2E/DX2                !
 ! D139  D(15,16,25,24)         -0.1632         estimate D2E/DX2                !
 ! D140  D(15,16,25,55)        179.8849         estimate D2E/DX2                !
 ! D141  D(17,16,25,24)        179.7984         estimate D2E/DX2                !
 ! D142  D(17,16,25,55)         -0.1535         estimate D2E/DX2                !
 ! D143  D(9,17,38,75)          67.0502         estimate D2E/DX2                !
 ! D144  D(9,17,38,76)        -173.5174         estimate D2E/DX2                !
 ! D145  D(9,17,38,77)         -54.0561         estimate D2E/DX2                !
 ! D146  D(16,17,38,75)        178.8514         estimate D2E/DX2                !
 ! D147  D(16,17,38,76)        -61.7161         estimate D2E/DX2                !
 ! D148  D(16,17,38,77)         57.7451         estimate D2E/DX2                !
 ! D149  D(39,17,38,75)        -58.7916         estimate D2E/DX2                !
 ! D150  D(39,17,38,76)         60.6408         estimate D2E/DX2                !
 ! D151  D(39,17,38,77)       -179.8979         estimate D2E/DX2                !
 ! D152  D(9,17,39,78)         -67.3284         estimate D2E/DX2                !
 ! D153  D(9,17,39,79)          53.8192         estimate D2E/DX2                !
 ! D154  D(9,17,39,80)         173.2021         estimate D2E/DX2                !
 ! D155  D(16,17,39,78)       -179.0497         estimate D2E/DX2                !
 ! D156  D(16,17,39,79)        -57.902          estimate D2E/DX2                !
 ! D157  D(16,17,39,80)         61.4808         estimate D2E/DX2                !
 ! D158  D(38,17,39,78)         58.4711         estimate D2E/DX2                !
 ! D159  D(38,17,39,79)        179.6187         estimate D2E/DX2                !
 ! D160  D(38,17,39,80)        -60.9984         estimate D2E/DX2                !
 ! D161  D(11,18,19,20)          0.0956         estimate D2E/DX2                !
 ! D162  D(11,18,19,49)        179.9519         estimate D2E/DX2                !
 ! D163  D(48,18,19,20)       -179.8567         estimate D2E/DX2                !
 ! D164  D(48,18,19,49)         -0.0003         estimate D2E/DX2                !
 ! D165  D(18,19,20,21)         -0.1254         estimate D2E/DX2                !
 ! D166  D(18,19,20,50)        179.7527         estimate D2E/DX2                !
 ! D167  D(49,19,20,21)       -179.9819         estimate D2E/DX2                !
 ! D168  D(49,19,20,50)         -0.1038         estimate D2E/DX2                !
 ! D169  D(19,20,21,12)         -0.1044         estimate D2E/DX2                !
 ! D170  D(19,20,21,51)        179.6498         estimate D2E/DX2                !
 ! D171  D(50,20,21,12)       -179.9831         estimate D2E/DX2                !
 ! D172  D(50,20,21,51)         -0.2289         estimate D2E/DX2                !
 ! D173  D(15,22,23,24)          0.1044         estimate D2E/DX2                !
 ! D174  D(15,22,23,53)        179.9831         estimate D2E/DX2                !
 ! D175  D(52,22,23,24)       -179.6498         estimate D2E/DX2                !
 ! D176  D(52,22,23,53)          0.2289         estimate D2E/DX2                !
 ! D177  D(22,23,24,25)          0.1254         estimate D2E/DX2                !
 ! D178  D(22,23,24,54)        179.9819         estimate D2E/DX2                !
 ! D179  D(53,23,24,25)       -179.7527         estimate D2E/DX2                !
 ! D180  D(53,23,24,54)          0.1038         estimate D2E/DX2                !
 ! D181  D(23,24,25,16)         -0.0956         estimate D2E/DX2                !
 ! D182  D(23,24,25,55)        179.8567         estimate D2E/DX2                !
 ! D183  D(54,24,25,16)       -179.9519         estimate D2E/DX2                !
 ! D184  D(54,24,25,55)          0.0003         estimate D2E/DX2                !
 ! D185  D(4,26,27,28)          53.1248         estimate D2E/DX2                !
 ! D186  D(4,26,27,58)         175.3965         estimate D2E/DX2                !
 ! D187  D(4,26,27,59)         -67.4177         estimate D2E/DX2                !
 ! D188  D(56,26,27,28)        -67.847          estimate D2E/DX2                !
 ! D189  D(56,26,27,58)         54.4246         estimate D2E/DX2                !
 ! D190  D(56,26,27,59)        171.6105         estimate D2E/DX2                !
 ! D191  D(57,26,27,28)        176.2077         estimate D2E/DX2                !
 ! D192  D(57,26,27,58)        -61.5206         estimate D2E/DX2                !
 ! D193  D(57,26,27,59)         55.6652         estimate D2E/DX2                !
 ! D194  D(26,27,28,6)         -53.1248         estimate D2E/DX2                !
 ! D195  D(26,27,28,60)         67.847          estimate D2E/DX2                !
 ! D196  D(26,27,28,61)       -176.2077         estimate D2E/DX2                !
 ! D197  D(58,27,28,6)        -175.3965         estimate D2E/DX2                !
 ! D198  D(58,27,28,60)        -54.4246         estimate D2E/DX2                !
 ! D199  D(58,27,28,61)         61.5206         estimate D2E/DX2                !
 ! D200  D(59,27,28,6)          67.4177         estimate D2E/DX2                !
 ! D201  D(59,27,28,60)       -171.6105         estimate D2E/DX2                !
 ! D202  D(59,27,28,61)        -55.6652         estimate D2E/DX2                !
 ! D203  D(5,29,30,31)         180.0            estimate D2E/DX2                !
 ! D204  D(5,29,30,35)           0.0            estimate D2E/DX2                !
 ! D205  D(34,29,30,31)          0.0            estimate D2E/DX2                !
 ! D206  D(34,29,30,35)        180.0            estimate D2E/DX2                !
 ! D207  D(5,29,34,33)         180.0            estimate D2E/DX2                !
 ! D208  D(5,29,34,65)           0.0            estimate D2E/DX2                !
 ! D209  D(30,29,34,33)          0.0            estimate D2E/DX2                !
 ! D210  D(30,29,34,65)        180.0            estimate D2E/DX2                !
 ! D211  D(29,30,31,32)          0.0            estimate D2E/DX2                !
 ! D212  D(29,30,31,62)        180.0            estimate D2E/DX2                !
 ! D213  D(35,30,31,32)        180.0            estimate D2E/DX2                !
 ! D214  D(35,30,31,62)          0.0            estimate D2E/DX2                !
 ! D215  D(29,30,35,66)         59.3493         estimate D2E/DX2                !
 ! D216  D(29,30,35,67)        180.0            estimate D2E/DX2                !
 ! D217  D(29,30,35,68)        -59.3493         estimate D2E/DX2                !
 ! D218  D(31,30,35,66)       -120.6507         estimate D2E/DX2                !
 ! D219  D(31,30,35,67)          0.0            estimate D2E/DX2                !
 ! D220  D(31,30,35,68)        120.6507         estimate D2E/DX2                !
 ! D221  D(30,31,32,33)          0.0            estimate D2E/DX2                !
 ! D222  D(30,31,32,63)        180.0            estimate D2E/DX2                !
 ! D223  D(62,31,32,33)        180.0            estimate D2E/DX2                !
 ! D224  D(62,31,32,63)          0.0            estimate D2E/DX2                !
 ! D225  D(31,32,33,34)          0.0            estimate D2E/DX2                !
 ! D226  D(31,32,33,64)        180.0            estimate D2E/DX2                !
 ! D227  D(63,32,33,34)        180.0            estimate D2E/DX2                !
 ! D228  D(63,32,33,64)          0.0            estimate D2E/DX2                !
 ! D229  D(32,33,34,29)          0.0            estimate D2E/DX2                !
 ! D230  D(32,33,34,65)        180.0            estimate D2E/DX2                !
 ! D231  D(64,33,34,29)        180.0            estimate D2E/DX2                !
 ! D232  D(64,33,34,65)          0.0            estimate D2E/DX2                !
 ! D233  D(14,40,42,85)       -179.5162         estimate D2E/DX2                !
 ! D234  D(14,40,42,86)        -60.0286         estimate D2E/DX2                !
 ! D235  D(14,40,42,87)         60.8558         estimate D2E/DX2                !
 ! D236  D(81,40,42,85)         58.5066         estimate D2E/DX2                !
 ! D237  D(81,40,42,86)        177.9942         estimate D2E/DX2                !
 ! D238  D(81,40,42,87)        -61.1214         estimate D2E/DX2                !
 ! D239  D(82,40,42,85)        -59.0335         estimate D2E/DX2                !
 ! D240  D(82,40,42,86)         60.4541         estimate D2E/DX2                !
 ! D241  D(82,40,42,87)       -178.6615         estimate D2E/DX2                !
 ! D242  D(13,41,43,88)        179.5162         estimate D2E/DX2                !
 ! D243  D(13,41,43,89)        -60.8558         estimate D2E/DX2                !
 ! D244  D(13,41,43,90)         60.0286         estimate D2E/DX2                !
 ! D245  D(83,41,43,88)         59.0335         estimate D2E/DX2                !
 ! D246  D(83,41,43,89)        178.6615         estimate D2E/DX2                !
 ! D247  D(83,41,43,90)        -60.4541         estimate D2E/DX2                !
 ! D248  D(84,41,43,88)        -58.5066         estimate D2E/DX2                !
 ! D249  D(84,41,43,89)         61.1214         estimate D2E/DX2                !
 ! D250  D(84,41,43,90)       -177.9942         estimate D2E/DX2                !
 --------------------------------------------------------------------------------
 NAtoms=     90 NQM=       90 NQMF=       0 NMMI=      0 NMMIF=      0
                NMic=       0 NMicF=      0.
                    Isotopes and Nuclear Properties:
 (Nuclear quadrupole moments (NQMom) in fm**2, nuclear magnetic moments (NMagM)
  in nuclear magnetons)

  Atom         1           2           3           4           5           6           7           8           9          10
 IAtWgt=          12          12          12          12          12          12          12          12          12          12
 AtmWgt=  12.0000000  12.0000000  12.0000000  12.0000000  12.0000000  12.0000000  12.0000000  12.0000000  12.0000000  12.0000000
 NucSpn=           0           0           0           0           0           0           0           0           0           0
 AtZEff=   3.6000000   3.6000000   3.6000000   3.6000000   3.6000000   3.6000000   3.6000000   3.6000000   3.6000000   3.6000000
 NQMom=    0.0000000   0.0000000   0.0000000   0.0000000   0.0000000   0.0000000   0.0000000   0.0000000   0.0000000   0.0000000
 NMagM=    0.0000000   0.0000000   0.0000000   0.0000000   0.0000000   0.0000000   0.0000000   0.0000000   0.0000000   0.0000000
 AtZNuc=   6.0000000   6.0000000   6.0000000   6.0000000   6.0000000   6.0000000   6.0000000   6.0000000   6.0000000   6.0000000

  Atom        11          12          13          14          15          16          17          18          19          20
 IAtWgt=          12          12          14          14          12          12          12          12          12          12
 AtmWgt=  12.0000000  12.0000000  14.0030740  14.0030740  12.0000000  12.0000000  12.0000000  12.0000000  12.0000000  12.0000000
 NucSpn=           0           0           2           2           0           0           0           0           0           0
 AtZEff=   3.6000000   3.6000000   4.5500000   4.5500000   3.6000000   3.6000000   3.6000000   3.6000000   3.6000000   3.6000000
 NQMom=    0.0000000   0.0000000   2.0440000   2.0440000   0.0000000   0.0000000   0.0000000   0.0000000   0.0000000   0.0000000
 NMagM=    0.0000000   0.0000000   0.4037610   0.4037610   0.0000000   0.0000000   0.0000000   0.0000000   0.0000000   0.0000000
 AtZNuc=   6.0000000   6.0000000   7.0000000   7.0000000   6.0000000   6.0000000   6.0000000   6.0000000   6.0000000   6.0000000

  Atom        21          22          23          24          25          26          27          28          29          30
 IAtWgt=          12          12          12          12          12          12          12          12          12          12
 AtmWgt=  12.0000000  12.0000000  12.0000000  12.0000000  12.0000000  12.0000000  12.0000000  12.0000000  12.0000000  12.0000000
 NucSpn=           0           0           0           0           0           0           0           0           0           0
 AtZEff=   3.6000000   3.6000000   3.6000000   3.6000000   3.6000000   3.6000000   3.6000000   3.6000000   3.6000000   3.6000000
 NQMom=    0.0000000   0.0000000   0.0000000   0.0000000   0.0000000   0.0000000   0.0000000   0.0000000   0.0000000   0.0000000
 NMagM=    0.0000000   0.0000000   0.0000000   0.0000000   0.0000000   0.0000000   0.0000000   0.0000000   0.0000000   0.0000000
 AtZNuc=   6.0000000   6.0000000   6.0000000   6.0000000   6.0000000   6.0000000   6.0000000   6.0000000   6.0000000   6.0000000

  Atom        31          32          33          34          35          36          37          38          39          40
 IAtWgt=          12          12          12          12          12          12          12          12          12          12
 AtmWgt=  12.0000000  12.0000000  12.0000000  12.0000000  12.0000000  12.0000000  12.0000000  12.0000000  12.0000000  12.0000000
 NucSpn=           0           0           0           0           0           0           0           0           0           0
 AtZEff=   3.6000000   3.6000000   3.6000000   3.6000000   3.6000000   3.6000000   3.6000000   3.6000000   3.6000000   3.6000000
 NQMom=    0.0000000   0.0000000   0.0000000   0.0000000   0.0000000   0.0000000   0.0000000   0.0000000   0.0000000   0.0000000
 NMagM=    0.0000000   0.0000000   0.0000000   0.0000000   0.0000000   0.0000000   0.0000000   0.0000000   0.0000000   0.0000000
 AtZNuc=   6.0000000   6.0000000   6.0000000   6.0000000   6.0000000   6.0000000   6.0000000   6.0000000   6.0000000   6.0000000

  Atom        41          42          43          44          45          46          47          48          49          50
 IAtWgt=          12          12          12           1           1           1           1           1           1           1
 AtmWgt=  12.0000000  12.0000000  12.0000000   1.0078250   1.0078250   1.0078250   1.0078250   1.0078250   1.0078250   1.0078250
 NucSpn=           0           0           0           1           1           1           1           1           1           1
 AtZEff=   3.6000000   3.6000000   3.6000000   1.0000000   1.0000000   1.0000000   1.0000000   1.0000000   1.0000000   1.0000000
 NQMom=    0.0000000   0.0000000   0.0000000   0.0000000   0.0000000   0.0000000   0.0000000   0.0000000   0.0000000   0.0000000
 NMagM=    0.0000000   0.0000000   0.0000000   2.7928460   2.7928460   2.7928460   2.7928460   2.7928460   2.7928460   2.7928460
 AtZNuc=   6.0000000   6.0000000   6.0000000   1.0000000   1.0000000   1.0000000   1.0000000   1.0000000   1.0000000   1.0000000

  Atom        51          52          53          54          55          56          57          58          59          60
 IAtWgt=           1           1           1           1           1           1           1           1           1           1
 AtmWgt=   1.0078250   1.0078250   1.0078250   1.0078250   1.0078250   1.0078250   1.0078250   1.0078250   1.0078250   1.0078250
 NucSpn=           1           1           1           1           1           1           1           1           1           1
 AtZEff=   1.0000000   1.0000000   1.0000000   1.0000000   1.0000000   1.0000000   1.0000000   1.0000000   1.0000000   1.0000000
 NQMom=    0.0000000   0.0000000   0.0000000   0.0000000   0.0000000   0.0000000   0.0000000   0.0000000   0.0000000   0.0000000
 NMagM=    2.7928460   2.7928460   2.7928460   2.7928460   2.7928460   2.7928460   2.7928460   2.7928460   2.7928460   2.7928460
 AtZNuc=   1.0000000   1.0000000   1.0000000   1.0000000   1.0000000   1.0000000   1.0000000   1.0000000   1.0000000   1.0000000

  Atom        61          62          63          64          65          66          67          68          69          70
 IAtWgt=           1           1           1           1           1           1           1           1           1           1
 AtmWgt=   1.0078250   1.0078250   1.0078250   1.0078250   1.0078250   1.0078250   1.0078250   1.0078250   1.0078250   1.0078250
 NucSpn=           1           1           1           1           1           1           1           1           1           1
 AtZEff=   1.0000000   1.0000000   1.0000000   1.0000000   1.0000000   1.0000000   1.0000000   1.0000000   1.0000000   1.0000000
 NQMom=    0.0000000   0.0000000   0.0000000   0.0000000   0.0000000   0.0000000   0.0000000   0.0000000   0.0000000   0.0000000
 NMagM=    2.7928460   2.7928460   2.7928460   2.7928460   2.7928460   2.7928460   2.7928460   2.7928460   2.7928460   2.7928460
 AtZNuc=   1.0000000   1.0000000   1.0000000   1.0000000   1.0000000   1.0000000   1.0000000   1.0000000   1.0000000   1.0000000

  Atom        71          72          73          74          75          76          77          78          79          80
 IAtWgt=           1           1           1           1           1           1           1           1           1           1
 AtmWgt=   1.0078250   1.0078250   1.0078250   1.0078250   1.0078250   1.0078250   1.0078250   1.0078250   1.0078250   1.0078250
 NucSpn=           1           1           1           1           1           1           1           1           1           1
 AtZEff=   1.0000000   1.0000000   1.0000000   1.0000000   1.0000000   1.0000000   1.0000000   1.0000000   1.0000000   1.0000000
 NQMom=    0.0000000   0.0000000   0.0000000   0.0000000   0.0000000   0.0000000   0.0000000   0.0000000   0.0000000   0.0000000
 NMagM=    2.7928460   2.7928460   2.7928460   2.7928460   2.7928460   2.7928460   2.7928460   2.7928460   2.7928460   2.7928460
 AtZNuc=   1.0000000   1.0000000   1.0000000   1.0000000   1.0000000   1.0000000   1.0000000   1.0000000   1.0000000   1.0000000

  Atom        81          82          83          84          85          86          87          88          89          90
 IAtWgt=           1           1           1           1           1           1           1           1           1           1
 AtmWgt=   1.0078250   1.0078250   1.0078250   1.0078250   1.0078250   1.0078250   1.0078250   1.0078250   1.0078250   1.0078250
 NucSpn=           1           1           1           1           1           1           1           1           1           1
 AtZEff=   1.0000000   1.0000000   1.0000000   1.0000000   1.0000000   1.0000000   1.0000000   1.0000000   1.0000000   1.0000000
 NQMom=    0.0000000   0.0000000   0.0000000   0.0000000   0.0000000   0.0000000   0.0000000   0.0000000   0.0000000   0.0000000
 NMagM=    2.7928460   2.7928460   2.7928460   2.7928460   2.7928460   2.7928460   2.7928460   2.7928460   2.7928460   2.7928460
 AtZNuc=   1.0000000   1.0000000   1.0000000   1.0000000   1.0000000   1.0000000   1.0000000   1.0000000   1.0000000   1.0000000
 Leave Link  101 at Fri Jan  3 10:18:56 2025, MaxMem= 12884901888 cpu:               4.7 elap:               0.2
 (Enter /work/home/gamess/apprepo/gaussian/16-hy/scripts/../app/g16/l202.exe)
 Stoichiometry    C41H47N2(1+)
 Framework group  CS[SG(C9H7),X(C32H40N2)]
 Deg. of freedom   140
 Full point group                 CS      NOp   2
 RotChk:  IX=2 Diff= 2.93D-15
 Largest Abelian subgroup         CS      NOp   2
 Largest concise Abelian subgroup CS      NOp   2
                         Standard orientation:                         
 ---------------------------------------------------------------------
 Center     Atomic      Atomic             Coordinates (Angstroms)
 Number     Number       Type             X           Y           Z
 ---------------------------------------------------------------------
      1          6           0        0.504868    0.039247   -4.938668
      2          6           0        1.193601    0.162474   -3.732898
      3          6           0        0.624792    0.200292   -2.451900
      4          6           0        1.341704    0.309270   -1.243364
      5          6           0        0.653425    0.278810   -0.000000
      6          6           0        1.341704    0.309270    1.243364
      7          6           0        0.624792    0.200292    2.451900
      8          6           0        1.193601    0.162474    3.732898
      9          6           0        0.504868    0.039247    4.938668
     10          6           0       -0.998315   -0.098446   -5.169079
     11          6           0       -1.056217   -0.210494   -6.676048
     12          6           0        0.245875   -0.140207   -7.193175
     13          7           0        1.142965    0.021153   -6.147122
     14          7           0        1.142965    0.021153    6.147122
     15          6           0        0.245875   -0.140207    7.193175
     16          6           0       -1.056217   -0.210494    6.676048
     17          6           0       -0.998315   -0.098446    5.169079
     18          6           0       -2.135265   -0.360841   -7.532055
     19          6           0       -1.898332   -0.443655   -8.910546
     20          6           0       -0.594204   -0.377602   -9.412767
     21          6           0        0.502532   -0.225849   -8.564628
     22          6           0        0.502532   -0.225849    8.564628
     23          6           0       -0.594204   -0.377602    9.412767
     24          6           0       -1.898332   -0.443655    8.910546
     25          6           0       -2.135265   -0.360841    7.532055
     26          6           0        2.841625    0.425906   -1.249544
     27          6           0        3.370110    1.107633   -0.000000
     28          6           0        2.841625    0.425906    1.249544
     29          6           0       -0.835762    0.158706    0.000000
     30          6           0       -1.654752    1.307723    0.000000
     31          6           0       -3.045347    1.136302    0.000000
     32          6           0       -3.624423   -0.132109    0.000000
     33          6           0       -2.811468   -1.264145    0.000000
     34          6           0       -1.425183   -1.112329    0.000000
     35          6           0       -1.052199    2.683332    0.000000
     36          6           0       -1.563347   -1.376399   -4.522404
     37          6           0       -1.766057    1.149929   -4.697099
     38          6           0       -1.766057    1.149929    4.697099
     39          6           0       -1.563347   -1.376399    4.522404
     40          6           0        2.578870    0.100542    6.346369
     41          6           0        2.578870    0.100542   -6.346369
     42          6           0        3.268317   -1.253612    6.274825
     43          6           0        3.268317   -1.253612   -6.274825
     44          1           0        2.281325    0.222767   -3.802085
     45          1           0       -0.458885    0.123004   -2.360686
     46          1           0       -0.458885    0.123004    2.360686
     47          1           0        2.281325    0.222767    3.802085
     48          1           0       -3.155982   -0.415356   -7.144960
     49          1           0       -2.737967   -0.563082   -9.598768
     50          1           0       -0.426785   -0.447852  -10.490111
     51          1           0        1.515048   -0.181376   -8.968244
     52          1           0        1.515048   -0.181376    8.968244
     53          1           0       -0.426785   -0.447852   10.490111
     54          1           0       -2.737967   -0.563082    9.598768
     55          1           0       -3.155982   -0.415356    7.144960
     56          1           0        3.276993   -0.588306   -1.332383
     57          1           0        3.177454    0.970757   -2.144171
     58          1           0        4.470287    1.102195   -0.000000
     59          1           0        3.055280    2.165268   -0.000000
     60          1           0        3.276993   -0.588306    1.332383
     61          1           0        3.177454    0.970757    2.144171
     62          1           0       -3.686586    2.022360    0.000000
     63          1           0       -4.712538   -0.234236    0.000000
     64          1           0       -3.252686   -2.263858    0.000000
     65          1           0       -0.779550   -1.994882    0.000000
     66          1           0       -0.412659    2.838752   -0.883317
     67          1           0       -1.830717    3.458609    0.000000
     68          1           0       -0.412659    2.838752    0.883317
     69          1           0       -2.617301   -1.499355   -4.813508
     70          1           0       -1.518793   -1.331080   -3.425451
     71          1           0       -1.008752   -2.265417   -4.856136
     72          1           0       -1.359353    2.061219   -5.159003
     73          1           0       -2.824365    1.061039   -4.984653
     74          1           0       -1.721268    1.264493   -3.605212
     75          1           0       -1.721268    1.264493    3.605212
     76          1           0       -2.824365    1.061039    4.984653
     77          1           0       -1.359353    2.061219    5.159003
     78          1           0       -1.518793   -1.331080    3.425451
     79          1           0       -1.008752   -2.265417    4.856136
     80          1           0       -2.617301   -1.499355    4.813508
     81          1           0        2.991081    0.795186    5.600873
     82          1           0        2.747300    0.571289    7.324964
     83          1           0        2.747300    0.571289   -7.324964
     84          1           0        2.991081    0.795186   -5.600873
     85          1           0        4.347720   -1.126639    6.441572
     86          1           0        2.880983   -1.937724    7.043975
     87          1           0        3.125821   -1.723218    5.290530
     88          1           0        4.347720   -1.126639   -6.441572
     89          1           0        3.125821   -1.723218   -5.290530
     90          1           0        2.880983   -1.937724   -7.043975
 ---------------------------------------------------------------------
 Rotational constants (GHZ):           0.2054619           0.0296674           0.0270701
 Leave Link  202 at Fri Jan  3 10:18:56 2025, MaxMem= 12884901888 cpu:               0.4 elap:               0.0
 (Enter /work/home/gamess/apprepo/gaussian/16-hy/scripts/../app/g16/l716.exe)
 Electric field and nuclear coordinate derivatives read from checkpoint file.
 Rotating derivatives to standard orientation.
 Dipole        = 2.01043372D+00-4.41995178D-03-2.49932361D-12
 Polarizability= 6.89511225D+02 2.54592751D+01 4.28833317D+02
                 2.30014777D-07-1.62257023D-07 2.17265396D+03
 Full mass-weighted force constant matrix:
 Low frequencies ---   -3.9951   -0.5289   -0.0011   -0.0008    0.0014    3.3213
 Low frequencies ---   11.2700   12.5811   18.7616
 Diagonal vibrational polarizability:
       21.4625711     108.3789863      62.4631984
 Harmonic frequencies (cm**-1), IR intensities (KM/Mole), Raman scattering
 activities (A**4/AMU), depolarization ratios for plane and unpolarized
 incident light, reduced masses (AMU), force constants (mDyne/A),
 and normal coordinates:
                      1                      2                      3
                     A'                     A"                     A'
 Frequencies --     11.1050                12.3972                18.7616
 Red. masses --      5.8617                 3.6751                 4.2534
 Frc consts  --      0.0004                 0.0003                 0.0009
 IR Inten    --      0.2522                 0.0040                 0.2008
  Atom  AN      X      Y      Z        X      Y      Z        X      Y      Z
     1   6     0.00   0.00  -0.01     0.01  -0.01  -0.00    -0.00  -0.01   0.01
     2   6     0.01  -0.04  -0.00     0.01  -0.03   0.00     0.02  -0.01  -0.00
     3   6     0.01  -0.08  -0.00     0.00  -0.01  -0.00     0.03  -0.03   0.00
     4   6     0.01  -0.10  -0.00     0.00  -0.01   0.00     0.03  -0.05  -0.00
     5   6     0.01  -0.11  -0.00    -0.00   0.00  -0.00     0.03  -0.03   0.00
     6   6     0.01  -0.10   0.00    -0.00   0.01   0.00     0.03  -0.05   0.00
     7   6     0.01  -0.08   0.00    -0.00   0.01  -0.00     0.03  -0.03  -0.00
     8   6     0.01  -0.04   0.00    -0.01   0.03   0.00     0.02  -0.01   0.00
     9   6     0.00   0.00   0.01    -0.01   0.01  -0.00    -0.00  -0.01  -0.01
    10   6    -0.00   0.02  -0.00     0.00   0.06  -0.00    -0.00  -0.05   0.03
    11   6    -0.01   0.07  -0.01    -0.00   0.06  -0.00    -0.03  -0.04   0.03
    12   6    -0.01   0.09  -0.01     0.01  -0.02   0.00    -0.04   0.02   0.01
    13   7    -0.00   0.04  -0.01     0.01  -0.06   0.00    -0.02   0.03  -0.01
    14   7    -0.00   0.04   0.01    -0.01   0.06   0.00    -0.02   0.03   0.01
    15   6    -0.01   0.09   0.01    -0.01   0.02   0.00    -0.04   0.02  -0.01
    16   6    -0.01   0.07   0.01     0.00  -0.06  -0.00    -0.03  -0.04  -0.03
    17   6    -0.00   0.02   0.00    -0.00  -0.06  -0.00    -0.00  -0.05  -0.03
    18   6    -0.01   0.11  -0.01    -0.00   0.11  -0.01    -0.04  -0.07   0.05
    19   6    -0.02   0.16  -0.01    -0.00   0.09  -0.01    -0.06  -0.05   0.04
    20   6    -0.02   0.17  -0.02     0.00   0.02  -0.00    -0.07   0.01   0.02
    21   6    -0.02   0.14  -0.02     0.01  -0.04   0.00    -0.06   0.04   0.00
    22   6    -0.02   0.14   0.02    -0.01   0.04   0.00    -0.06   0.04  -0.00
    23   6    -0.02   0.17   0.02    -0.00  -0.02  -0.00    -0.07   0.01  -0.02
    24   6    -0.02   0.16   0.01     0.00  -0.09  -0.01    -0.06  -0.05  -0.04
    25   6    -0.01   0.11   0.01     0.00  -0.11  -0.01    -0.04  -0.07  -0.05
    26   6     0.01  -0.10  -0.00     0.00  -0.03   0.01     0.04  -0.08  -0.00
    27   6     0.01  -0.10  -0.00    -0.00   0.00  -0.01     0.05  -0.09  -0.00
    28   6     0.01  -0.10   0.00    -0.00   0.03   0.01     0.04  -0.08   0.00
    29   6     0.02  -0.12  -0.00    -0.00   0.00  -0.00     0.03   0.02   0.00
    30   6     0.00  -0.13   0.00     0.00   0.00   0.01     0.07   0.05   0.00
    31   6     0.00  -0.15   0.00     0.00   0.00   0.01     0.07   0.11   0.00
    32   6     0.02  -0.16  -0.00    -0.00   0.00  -0.01     0.02   0.13   0.00
    33   6     0.03  -0.15  -0.00    -0.00   0.00  -0.02    -0.02   0.10   0.00
    34   6     0.03  -0.13  -0.00    -0.00   0.00  -0.02    -0.02   0.05   0.00
    35   6    -0.01  -0.13   0.00     0.00   0.00   0.03     0.13   0.03  -0.00
    36   6    -0.01  -0.00  -0.05    -0.06   0.09  -0.00     0.05  -0.07   0.03
    37   6     0.01   0.01   0.04     0.06   0.10  -0.01    -0.03  -0.08   0.05
    38   6     0.01   0.01  -0.04    -0.06  -0.10  -0.01    -0.03  -0.08  -0.05
    39   6    -0.01  -0.00   0.05     0.06  -0.09  -0.00     0.05  -0.07  -0.03
    40   6    -0.01   0.05   0.01    -0.02   0.14   0.01    -0.03   0.10   0.03
    41   6    -0.01   0.05  -0.01     0.02  -0.14   0.01    -0.03   0.10  -0.03
    42   6    -0.01   0.05   0.07     0.07   0.19   0.02     0.03   0.13   0.07
    43   6    -0.01   0.05  -0.07    -0.07  -0.19   0.02     0.03   0.13  -0.07
    44   1     0.01  -0.04  -0.01     0.01  -0.08   0.00     0.01   0.01  -0.02
    45   1     0.01  -0.08   0.00     0.00   0.02  -0.00     0.03  -0.02   0.01
    46   1     0.01  -0.08  -0.00    -0.00  -0.02  -0.00     0.03  -0.02  -0.01
    47   1     0.01  -0.04   0.01    -0.01   0.08   0.00     0.01   0.01   0.02
    48   1    -0.01   0.10  -0.01    -0.01   0.17  -0.01    -0.03  -0.11   0.07
    49   1    -0.02   0.19  -0.02    -0.01   0.13  -0.01    -0.07  -0.07   0.06
    50   1    -0.02   0.21  -0.02     0.00   0.00  -0.00    -0.09   0.03   0.02
    51   1    -0.02   0.15  -0.02     0.01  -0.10   0.01    -0.07   0.09  -0.02
    52   1    -0.02   0.15   0.02    -0.01   0.10   0.01    -0.07   0.09   0.02
    53   1    -0.02   0.21   0.02    -0.00  -0.00  -0.00    -0.09   0.03  -0.02
    54   1    -0.02   0.19   0.02     0.01  -0.13  -0.01    -0.07  -0.07  -0.06
    55   1    -0.01   0.10   0.01     0.01  -0.17  -0.01    -0.03  -0.11  -0.07
    56   1     0.01  -0.10   0.00    -0.01  -0.04   0.04     0.01  -0.09  -0.00
    57   1     0.01  -0.10   0.00     0.02  -0.06  -0.01     0.05  -0.09  -0.00
    58   1     0.01  -0.10  -0.00    -0.00   0.00  -0.00     0.05  -0.12  -0.00
    59   1     0.01  -0.10  -0.00    -0.00   0.00  -0.04     0.08  -0.09  -0.00
    60   1     0.01  -0.10  -0.00     0.01   0.04   0.04     0.01  -0.09   0.00
    61   1     0.01  -0.10  -0.00    -0.02   0.06  -0.01     0.05  -0.09   0.00
    62   1    -0.01  -0.16   0.00     0.00   0.00   0.02     0.10   0.13   0.00
    63   1     0.02  -0.17  -0.00    -0.00   0.00  -0.01     0.01   0.17   0.00
    64   1     0.04  -0.15  -0.00    -0.00   0.00  -0.04    -0.06   0.12   0.00
    65   1     0.04  -0.12  -0.00    -0.00   0.00  -0.04    -0.05   0.02  -0.00
    66   1    -0.02  -0.12  -0.00     0.01   0.01   0.04     0.13   0.01   0.00
    67   1    -0.02  -0.13   0.00     0.00   0.00   0.04     0.16   0.06   0.00
    68   1    -0.02  -0.12   0.00    -0.01  -0.01   0.04     0.13   0.01  -0.00
    69   1    -0.01   0.02  -0.05    -0.07   0.13  -0.01     0.04  -0.10   0.05
    70   1    -0.00  -0.04  -0.04    -0.07   0.09  -0.00     0.06  -0.08   0.03
    71   1    -0.01   0.01  -0.08    -0.10   0.06   0.00     0.06  -0.05   0.02
    72   1     0.01   0.02   0.07     0.10   0.08  -0.01    -0.07  -0.06   0.05
    73   1     0.01   0.02   0.04     0.06   0.15  -0.01    -0.03  -0.11   0.06
    74   1     0.01  -0.03   0.04     0.06   0.10  -0.01    -0.02  -0.08   0.05
    75   1     0.01  -0.03  -0.04    -0.06  -0.10  -0.01    -0.02  -0.08  -0.05
    76   1     0.01   0.02  -0.04    -0.06  -0.15  -0.01    -0.03  -0.11  -0.06
    77   1     0.01   0.02  -0.07    -0.10  -0.08  -0.01    -0.07  -0.06  -0.05
    78   1    -0.00  -0.04   0.04     0.07  -0.09  -0.00     0.06  -0.08  -0.03
    79   1    -0.01   0.01   0.08     0.10  -0.06   0.00     0.06  -0.05  -0.02
    80   1    -0.01   0.02   0.05     0.07  -0.13  -0.01     0.04  -0.10  -0.05
    81   1    -0.00   0.02  -0.01    -0.06   0.16   0.00    -0.05   0.10   0.03
    82   1    -0.01   0.08  -0.00    -0.05   0.16   0.00    -0.07   0.13   0.03
    83   1    -0.01   0.08   0.00     0.05  -0.16   0.00    -0.07   0.13  -0.03
    84   1    -0.00   0.02   0.01     0.06  -0.16   0.00    -0.05   0.10  -0.03
    85   1    -0.01   0.05   0.07     0.06   0.25   0.02     0.02   0.18   0.09
    86   1    -0.01   0.07   0.09     0.11   0.17   0.02     0.04   0.13   0.08
    87   1    -0.00   0.01   0.08     0.10   0.17   0.02     0.07   0.10   0.08
    88   1    -0.01   0.05  -0.07    -0.06  -0.25   0.02     0.02   0.18  -0.09
    89   1    -0.00   0.01  -0.08    -0.10  -0.17   0.02     0.07   0.10  -0.08
    90   1    -0.01   0.07  -0.09    -0.11  -0.17   0.02     0.04   0.13  -0.08
                      4                      5                      6
                     A'                     A"                     A"
 Frequencies --     20.0293                29.9654                36.6187
 Red. masses --      5.1118                 3.8401                 4.9667
 Frc consts  --      0.0012                 0.0020                 0.0039
 IR Inten    --      0.1039                 0.0635                 0.0069
  Atom  AN      X      Y      Z        X      Y      Z        X      Y      Z
     1   6    -0.01  -0.01  -0.02    -0.01   0.03  -0.01    -0.04  -0.02  -0.01
     2   6    -0.05  -0.03   0.00    -0.02   0.03  -0.01    -0.06  -0.02  -0.00
     3   6    -0.07  -0.04  -0.00    -0.02   0.04  -0.01    -0.05  -0.02  -0.00
     4   6    -0.07  -0.05   0.00    -0.01   0.02  -0.01    -0.03  -0.00  -0.01
     5   6    -0.07  -0.04   0.00    -0.00  -0.00  -0.01    -0.00  -0.00   0.00
     6   6    -0.07  -0.05  -0.00     0.01  -0.02  -0.01     0.03   0.00  -0.01
     7   6    -0.07  -0.04   0.00     0.02  -0.04  -0.01     0.05   0.02  -0.00
     8   6    -0.05  -0.03  -0.00     0.02  -0.03  -0.01     0.06   0.02  -0.00
     9   6    -0.01  -0.01   0.02     0.01  -0.03  -0.01     0.04   0.02  -0.01
    10   6    -0.00  -0.03  -0.06    -0.01   0.02  -0.02    -0.03  -0.02  -0.05
    11   6     0.04  -0.01  -0.07     0.00  -0.01  -0.02     0.00   0.00  -0.05
    12   6     0.05   0.02  -0.03     0.00  -0.01  -0.01     0.02   0.00  -0.02
    13   7     0.02   0.02   0.00    -0.00   0.01  -0.01    -0.01  -0.01   0.00
    14   7     0.02   0.02  -0.00     0.00  -0.01  -0.01     0.01   0.01   0.00
    15   6     0.05   0.02   0.03    -0.00   0.01  -0.01    -0.02  -0.00  -0.02
[...]
      7   0.992788D-03 -0.152768D-03 -0.876536D-03  0.728631D-04  0.662457D-03
      8  -0.201560D-02 -0.125241D-02  0.810121D-02 -0.167700D-02 -0.135851D-02
      9   0.196453D-02 -0.239512D-02  0.667835D-02 -0.157897D-02 -0.129709D-01
     10   0.112807D-03 -0.123085D-02  0.463433D-02 -0.118680D-02  0.687417D-03
     11  -0.124490D-02  0.220830D-02 -0.260785D-02  0.105097D-03  0.254159D-02
     12  -0.709238D-03 -0.154580D-02  0.501416D-02 -0.188688D-02 -0.770656D-03
     13   0.127721D-02 -0.284001D-02  0.356871D-02 -0.772019D-02 -0.134206D-01
     14  -0.165413D-02  0.881032D-03  0.214117D-02 -0.908180D-03  0.661673D-04
     15   0.622609D-02 -0.303623D-02  0.396494D-02  0.151697D-02  0.176009D-04
     16   0.454021D-02  0.160227D-02 -0.110086D-01  0.466934D-02 -0.354045D-02
               236           237           238           239           240 
      1   0.000000D+00  0.000000D+00  0.000000D+00  0.000000D+00  0.000000D+00
      2  -0.481697D-02 -0.486944D-02 -0.421153D-02 -0.958794D-02  0.355589D-02
      3   0.254803D-02  0.187997D-02 -0.509244D-02 -0.163350D-01 -0.372066D-02
      4   0.137561D-01 -0.198539D-01 -0.815858D-03 -0.482722D-02 -0.729262D-02
      5   0.196729D-03  0.215818D-03  0.280311D-03  0.677128D-03 -0.259344D-03
      6  -0.187208D-03 -0.124878D-03  0.287795D-03  0.107038D-02  0.212170D-03
      7  -0.329352D-03  0.726847D-03 -0.652070D-04  0.698617D-03 -0.635763D-04
      8   0.138507D-02 -0.419394D-02  0.204809D-02  0.832950D-02  0.476784D-03
      9   0.707641D-02  0.143448D-03 -0.334964D-02 -0.663934D-02 -0.689133D-03
     10   0.258871D-03  0.137474D-03  0.168546D-02  0.506770D-02  0.626506D-03
     11   0.551426D-03  0.113656D-02  0.210821D-02  0.275816D-02 -0.270020D-04
     12  -0.843148D-03  0.108494D-02 -0.198001D-02 -0.565919D-02 -0.180111D-02
     13   0.121856D-01 -0.257181D-01 -0.287650D-02 -0.182757D-02 -0.662947D-02
     14  -0.448953D-03 -0.575952D-03 -0.129748D-02  0.162853D-02  0.398645D-03
     15  -0.209575D-02  0.278752D-02 -0.373908D-02 -0.464774D-02  0.143638D-02
     16   0.174663D-02 -0.413476D-03 -0.257690D-02 -0.108811D-01 -0.333214D-02
               241           242           243           244           245 
      1   0.000000D+00  0.000000D+00  0.000000D+00  0.000000D+00  0.000000D+00
      2  -0.397975D-01  0.103263D-01  0.481340D-02 -0.184723D-01  0.113512D-01
      3   0.977645D-02 -0.517316D-02 -0.592270D-02  0.108666D-01 -0.275859D-01
      4   0.161885D-01 -0.132515D-01 -0.416170D-02  0.276801D-01 -0.163071D-01
      5   0.252542D-02 -0.625246D-03 -0.271469D-03  0.106130D-02 -0.740502D-03
      6  -0.564969D-03  0.326452D-03  0.404370D-03 -0.737606D-03  0.185091D-02
      7   0.109658D-02 -0.403703D-03  0.910087D-03 -0.190402D-02  0.110349D-02
      8  -0.204347D-02  0.203644D-03  0.316214D-02 -0.894398D-02  0.188506D-01
      9  -0.121525D-01 -0.311802D-02  0.328261D-02 -0.245062D-01  0.112073D-01
     10   0.339332D-02 -0.142943D-03  0.883831D-03  0.286146D-02 -0.976825D-02
     11   0.109763D-01 -0.351356D-03 -0.111693D-02 -0.885243D-02  0.406935D-02
     12   0.484763D-03 -0.206774D-02 -0.106451D-02 -0.855713D-03  0.236317D-02
     13   0.179883D-01 -0.163622D-01  0.457393D-02  0.515804D-01 -0.341757D-01
     14  -0.502366D-02  0.179163D-02  0.249403D-02  0.392392D-02 -0.108173D-01
     15  -0.177493D-01  0.207523D-02  0.631603D-02 -0.150620D-01  0.734372D-02
     16   0.433564D-02 -0.301400D-02 -0.524534D-02  0.821837D-02 -0.194375D-01
               246           247           248           249           250 
      1   0.000000D+00  0.000000D+00  0.000000D+00  0.000000D+00  0.000000D+00
      2   0.291862D-01 -0.223596D-02 -0.760764D-03 -0.231955D-01  0.223596D-02
      3  -0.959786D-02  0.493743D-02 -0.197706D-01  0.118626D-01 -0.493743D-02
      4  -0.685792D-02 -0.570975D-02 -0.146640D-02 -0.302850D-01 -0.570975D-02
      5  -0.178661D-02  0.219921D-03  0.108251D-03  0.136140D-02 -0.219923D-03
      6   0.663397D-03 -0.356656D-03  0.122084D-02 -0.786606D-03  0.356660D-03
      7   0.138430D-02 -0.626373D-03 -0.906260D-03  0.679032D-03 -0.626372D-03
      8   0.438811D-02 -0.613807D-02  0.140542D-01 -0.105537D-01 -0.613809D-02
      9   0.266760D-01 -0.936548D-02 -0.505837D-02 -0.156403D-01 -0.936553D-02
     10  -0.436792D-02  0.403834D-03 -0.464662D-02  0.401556D-02 -0.403843D-03
     11   0.981624D-02 -0.386041D-02 -0.248699D-02 -0.565663D-02  0.386041D-02
     12   0.105403D-02 -0.125718D-03  0.446923D-03  0.109392D-03  0.125713D-03
     13  -0.170132D-01 -0.771791D-02 -0.637443D-02 -0.378002D-01  0.771796D-02
     14  -0.377107D-02  0.142671D-02 -0.679455D-02  0.396488D-02 -0.142671D-02
     15   0.203818D-01 -0.147212D-01  0.214203D-02 -0.311737D-01 -0.147213D-01
     16  -0.613772D-02  0.584629D-02 -0.159162D-01  0.124977D-01  0.584632D-02
               251           252           253           254           255 
      1   0.000000D+00  0.000000D+00  0.000000D+00  0.000000D+00  0.000000D+00
      2   0.760765D-03 -0.231955D-01  0.184723D-01 -0.113512D-01  0.291862D-01
      3   0.197706D-01  0.118626D-01 -0.108666D-01  0.275859D-01 -0.959786D-02
      4  -0.146640D-02  0.302850D-01  0.276801D-01 -0.163071D-01  0.685792D-02
      5  -0.108250D-03  0.136140D-02 -0.106130D-02  0.740501D-03 -0.178661D-02
      6  -0.122084D-02 -0.786609D-03  0.737607D-03 -0.185091D-02  0.663396D-03
      7  -0.906260D-03 -0.679039D-03 -0.190403D-02  0.110349D-02 -0.138429D-02
      8   0.140542D-01  0.105538D-01 -0.894399D-02  0.188506D-01 -0.438813D-02
      9  -0.505836D-02  0.156403D-01 -0.245062D-01  0.112072D-01 -0.266760D-01
     10   0.464662D-02  0.401557D-02 -0.286145D-02  0.976824D-02 -0.436791D-02
     11   0.248698D-02 -0.565663D-02  0.885244D-02 -0.406935D-02  0.981624D-02
     12  -0.446927D-03  0.109400D-03  0.855718D-03 -0.236316D-02  0.105402D-02
     13   0.637445D-02 -0.378003D-01 -0.515806D-01  0.341757D-01 -0.170131D-01
     14   0.679455D-02  0.396488D-02 -0.392391D-02  0.108173D-01 -0.377106D-02
     15   0.214204D-02  0.311737D-01 -0.150620D-01  0.734371D-02 -0.203818D-01
     16  -0.159162D-01 -0.124977D-01  0.821838D-02 -0.194375D-01  0.613773D-02
               256           257           258           259           260 
      1   0.000000D+00  0.000000D+00  0.000000D+00  0.000000D+00  0.000000D+00
      2  -0.297915D-01  0.132347D-01 -0.655464D-02 -0.798715D-02  0.462664D-02
      3  -0.146953D-02  0.352339D-03 -0.252478D-02  0.958414D-03 -0.996561D-02
      4   0.415257D-02  0.182581D-01 -0.112762D-01 -0.613538D-02 -0.547689D-02
      5   0.189040D-02 -0.801737D-03  0.343430D-03  0.518049D-03 -0.344469D-03
      6   0.878891D-04  0.231677D-04  0.148898D-03 -0.307719D-04  0.627370D-03
      7  -0.676970D-03 -0.198994D-03  0.610506D-03  0.169514D-03  0.647918D-03
      8   0.986490D-03  0.146447D-02  0.689046D-03 -0.110585D-02  0.745277D-02
      9  -0.283918D-01  0.601132D-02 -0.712942D-03 -0.437235D-02  0.663710D-02
     10   0.325913D-02  0.198874D-03 -0.238073D-03  0.129896D-02 -0.392278D-02
     11  -0.257242D-01  0.536862D-02 -0.255971D-02 -0.349505D-02  0.488706D-02
     12   0.329892D-03 -0.217825D-02 -0.296885D-03  0.113840D-02 -0.379591D-02
     13   0.160250D-01  0.397836D-01 -0.163944D-01 -0.819147D-02 -0.499295D-02
     14  -0.490319D-02 -0.173045D-02 -0.132450D-02 -0.663828D-03 -0.274136D-02
     15  -0.297927D-01  0.463994D-02 -0.899826D-02 -0.639110D-02  0.108077D-02
     16  -0.127080D-02 -0.193431D-02 -0.328137D-02  0.674789D-03 -0.997123D-02
               261           262           263           264           265 
      1   0.000000D+00  0.000000D+00  0.000000D+00  0.000000D+00  0.000000D+00
      2   0.190851D-03  0.274608D-02  0.961663D-02  0.571070D-02  0.297915D-01
      3  -0.671846D-02  0.353180D-02 -0.411565D-02  0.702044D-02  0.146953D-02
      4  -0.678813D-02  0.652458D-02  0.136223D-01 -0.948792D-02  0.415257D-02
      5  -0.547074D-05 -0.982459D-04 -0.556728D-03 -0.266780D-03 -0.189039D-02
      6   0.414868D-03 -0.222975D-03  0.278609D-03 -0.391489D-03 -0.878898D-04
      7   0.455467D-03 -0.241865D-03 -0.576155D-03  0.627446D-03 -0.676975D-03
      8   0.341161D-02 -0.643414D-03  0.540786D-02 -0.561935D-02  0.986515D-03
      9   0.258667D-02  0.693871D-03  0.370901D-02  0.740961D-02 -0.283918D-01
     10  -0.246082D-02  0.428976D-03 -0.295156D-02  0.158558D-02 -0.325913D-02
     11   0.705276D-04 -0.101455D-02  0.389407D-02  0.173310D-02  0.257242D-01
     12  -0.225789D-02  0.115382D-02 -0.217239D-02  0.213639D-02 -0.329886D-03
     13  -0.100748D-01  0.750311D-02  0.198525D-01 -0.155925D-01 -0.160251D-01
     14  -0.220951D-02  0.661228D-03 -0.126206D-02  0.303109D-02  0.490318D-02
     15  -0.352232D-02  0.488259D-02  0.102581D-01  0.123183D-02 -0.297926D-01
     16  -0.755440D-02  0.297733D-02 -0.179402D-02  0.250846D-02 -0.127081D-02
               266           267           268           269           270 
      1   0.000000D+00  0.000000D+00  0.000000D+00  0.000000D+00  0.000000D+00
      2  -0.132347D-01 -0.655464D-02 -0.274608D-02 -0.961663D-02  0.571070D-02
      3  -0.352338D-03 -0.252478D-02 -0.353180D-02  0.411565D-02  0.702044D-02
      4   0.182581D-01  0.112762D-01  0.652458D-02  0.136223D-01  0.948792D-02
      5   0.801738D-03  0.343430D-03  0.982458D-04  0.556727D-03 -0.266781D-03
      6  -0.231685D-04  0.148899D-03  0.222978D-03 -0.278605D-03 -0.391488D-03
      7  -0.198996D-03 -0.610505D-03 -0.241857D-03 -0.576143D-03 -0.627443D-03
      8   0.146449D-02 -0.689051D-03 -0.643441D-03  0.540782D-02  0.561933D-02
      9   0.601134D-02  0.712942D-03  0.693886D-03  0.370903D-02 -0.740961D-02
     10  -0.198872D-03 -0.238074D-03 -0.428974D-03  0.295156D-02  0.158558D-02
     11  -0.536863D-02 -0.255972D-02  0.101452D-02 -0.389410D-02  0.173310D-02
     12   0.217825D-02 -0.296889D-03 -0.115385D-02  0.217236D-02  0.213639D-02
     13  -0.397836D-01 -0.163944D-01 -0.750288D-02 -0.198522D-01 -0.155925D-01
     14   0.173045D-02 -0.132450D-02 -0.661243D-03  0.126204D-02  0.303109D-02
     15   0.463998D-02  0.899824D-02  0.488252D-02  0.102580D-01 -0.123187D-02
     16  -0.193431D-02  0.328136D-02  0.297731D-02 -0.179403D-02 -0.250845D-02
               271           272           273 
      1   0.000000D+00  0.000000D+00  0.000000D+00
      2   0.798715D-02 -0.462664D-02  0.190850D-03
      3  -0.958414D-03  0.996561D-02 -0.671845D-02
      4  -0.613538D-02 -0.547689D-02  0.678813D-02
      5  -0.518049D-03  0.344470D-03 -0.547149D-05
      6   0.307709D-04 -0.627372D-03  0.414869D-03
      7   0.169512D-03  0.647909D-03 -0.455463D-03
      8  -0.110584D-02  0.745279D-02 -0.341163D-02
      9  -0.437235D-02  0.663708D-02 -0.258666D-02
     10  -0.129896D-02  0.392278D-02 -0.246082D-02
     11   0.349506D-02 -0.488703D-02  0.705146D-04
     12  -0.113839D-02  0.379594D-02 -0.225790D-02
     13   0.819139D-02  0.499270D-02 -0.100747D-01
     14   0.663834D-03  0.274137D-02 -0.220952D-02
     15  -0.639108D-02  0.108084D-02  0.352228D-02
     16   0.674783D-03 -0.997122D-02  0.755440D-02

 ----------------------------------------------------------------------

 Electric dipole moment (input orientation):
 (Debye = 10**-18 statcoulomb cm , SI units = C m)
                  (au)            (Debye)         (10**-30 SI)
   Tot        0.201044D+01      0.511002D+01      0.170452D+02
   x         -0.201006D+01     -0.510907D+01     -0.170420D+02
   y         -0.388979D-01     -0.988686D-01     -0.329790D+00
   z          0.000000D+00      0.000000D+00      0.000000D+00

 Dipole polarizability, Alpha (input orientation).
 (esu units = cm**3 , SI units = C**2 m**2 J**-1)
 Alpha(0;0):
               (au)            (10**-24 esu)      (10**-40 SI)
   iso        0.109700D+04      0.162559D+03      0.180871D+03
   aniso      0.162980D+04      0.241511D+03      0.268717D+03
   xx         0.690308D+03      0.102293D+03      0.113816D+03
   yx        -0.209744D+02     -0.310808D+01     -0.345821D+01
   yy         0.428037D+03      0.634285D+02      0.705737D+02
   zx         0.000000D+00      0.000000D+00      0.000000D+00
   zy         0.000000D+00      0.000000D+00      0.000000D+00
   zz         0.217265D+04      0.321954D+03      0.358222D+03

 ----------------------------------------------------------------------

 Dipole orientation:
     6         -9.33205994         -0.12488709         -0.95531921
     6         -7.05793003          0.12679975         -2.26109663
     6         -4.63943227          0.26586895         -1.18778736
     6         -2.35953463          0.48970999         -2.54628662
     6         -0.00972983          0.50279186         -1.24475750
     6          2.33882180          0.58063069         -2.54628664
     6          4.62567265          0.44516351         -1.18778740
     6          7.04774010          0.39976698         -2.26109670
     6          9.32990485          0.23625171         -0.95531930
     6         -9.76342247         -0.33846692          1.88978839
     6        -12.60659346         -0.60310891          2.00328292
     6        -13.58528612         -0.53684061         -0.45942227
     7        -11.61416756         -0.22657577         -2.16025914
     7         11.61423807          0.22293095         -2.16025925
     6         13.59588464         -0.01084157         -0.45942241
     6         12.62048857         -0.11492461          2.00328279
     6          9.76920758          0.03952064          1.88978829
     6        -14.21917723         -0.87896972          4.04750321
     6        -16.82046456         -1.09446924          3.60287794
     6        -17.77083935         -1.03572897          1.13647798
     6        -16.17315969         -0.75814627         -0.94121195
     6         16.19038273         -0.13186007         -0.94121211
     6         17.79760555         -0.34742279          1.13647780
     6         16.85021491         -0.44288786          3.60287777
     6         14.24253774         -0.32819011          4.04750307
     6         -2.37441304          0.65498008         -5.38446063
     6         -0.03810608          1.96914242         -6.40788983
     6          2.34729496          0.74635267         -5.38446065
     6         -0.00639281          0.33035074          1.57326236
     6         -0.04897508          2.53080381          3.07862986
     6         -0.04369239          2.25781977          5.71224868
     6          0.00226541         -0.11706394          6.85271504
     6          0.04422268         -2.28521973          5.35812982
     6          0.03965361         -2.04911237          2.73336996
     6         -0.09883495          5.10732882          1.88988763
     6         -8.49529607         -2.70824365          3.00406976
     6         -8.91785460          2.06506033          3.29469503
     6          8.83128344          2.40853448          3.29469494
     6          8.59371421         -2.37754403          3.00406968
     6         11.98880346          0.32769242         -4.87612280
     6        -11.99250563         -0.13638419         -4.87612269
     6         11.90361928         -2.25814947         -6.12923245
     6        -11.80734237         -2.71699442         -6.12923233
     1         -7.19008392          0.19840259         -4.31841705
     1         -4.46503540          0.16281925          0.86250715
     1          4.45539322          0.33544378          0.86250711
     1          7.17702481          0.47642907         -4.31841712
     1        -13.48653919         -0.93048398          5.97801147
     1        -18.11699967         -1.31453799          5.19362769
     1        -19.80365739         -1.21394327          0.82272980
     1        -16.93665001         -0.72590595         -2.85585839
     1         16.95205407         -0.07010544         -2.85585856
     1         19.83579652         -0.44685658          0.82272961
     1         18.15429351         -0.61263058          5.19362751
     1         13.51244125         -0.40801062          5.97801134
     1         -2.49354433         -1.27982801         -6.16995040
     1         -4.08437683          1.63922932         -6.03888665
     1         -0.03712903          1.91865241         -8.48633605
     1         -0.07699122          3.97854489         -5.85172951
     1          2.54119227         -1.18239783         -6.16995042
     1          4.01789919          1.79602129         -6.03888669
     1         -0.07653632          3.95504115          6.89139141
     1          0.00522899         -0.27020737          8.91230427
     1          0.08045557         -4.15756603          6.22830764
     1          0.07237250         -3.73987218          1.54579772
     1         -1.77297920          5.34524490          0.67587450
     1         -0.12772633          6.60030057          3.33245162
     1          1.56485120          5.40983725          0.67587448
     1         -9.04155148         -2.91262646          4.99987638
     1         -6.42436883         -2.58415659          2.91823244
     1         -9.09294883         -4.42009206          1.98873715
     1         -9.82358925          3.75474692          2.49296188
     1         -9.45865053          1.92531881          5.29748244
     1         -6.85903005          2.31975752          3.20588301
     1          6.76414639          2.58338772          3.20588294
     1          9.37708091          2.28982027          5.29748234
     1          9.67096818          4.13199771          2.49296179
     1          6.51953668         -2.33367136          2.91823238
     1          9.25714869         -4.06498839          1.98873706
     1          9.14746797         -2.56063991          4.99987629
     1         10.55518219          1.59756144         -5.68033903
     1         13.82064507          1.24656375         -5.21156051
     1        -13.85852570          0.71092762         -5.21156037
     1        -10.60908728          1.18799905         -5.68033893
     1         12.21478834         -2.05165647         -8.17326940
     1         13.38156456         -3.50816809         -5.37240182
     1         10.06098647         -3.17602320         -5.84283580
     1        -12.12626742         -2.52269475         -8.17326928
     1         -9.93057777         -3.56289187         -5.84283570
     1        -13.23581952         -4.02325695         -5.37240169

 Electric dipole moment (dipole orientation):
 (Debye = 10**-18 statcoulomb cm , SI units = C m)
                  (au)            (Debye)         (10**-30 SI)
   Tot        0.201044D+01      0.511002D+01      0.170452D+02
   x          0.000000D+00      0.000000D+00      0.000000D+00
   y          0.000000D+00      0.000000D+00      0.000000D+00
   z          0.201044D+01      0.511002D+01      0.170452D+02

 Dipole polarizability, Alpha (dipole orientation).
 (esu units = cm**3 , SI units = C**2 m**2 J**-1)
 Alpha(0;0):
               (au)            (10**-24 esu)      (10**-40 SI)
   iso        0.109700D+04      0.162559D+03      0.180871D+03
   aniso      0.162980D+04      0.241511D+03      0.268717D+03
   xx         0.217200D+04      0.321857D+03      0.358115D+03
   yx         0.337309D+02      0.499840D+01      0.556147D+01
   yy         0.429599D+03      0.636600D+02      0.708314D+02
   zx        -0.503669D+00     -0.746361D-01     -0.830438D-01
   zy         0.260273D+02      0.385684D+01      0.429131D+01
   zz         0.689398D+03      0.102158D+03      0.113666D+03

 ----------------------------------------------------------------------

 This type of calculation cannot be archived.


 WHAT THE SLIME CONTAINS, THE GLOWING REVEALS
 BY THE FLAME'S BRIGHT HUE WHEN YOU IGNITE IT.
   --  LEONARD THURNEYSSER, 1531-1596
 DESCRIBING HIS FLAME PHOTOLYSIS ANALYTIC METHOD
 Job cpu time:       0 days  0 hours 30 minutes 15.0 seconds.
 Elapsed time:       0 days  0 hours  0 minutes 57.0 seconds.
 File lengths (MBytes):  RWF=     13 Int=      0 D2E=      0 Chk=    133 Scr=      1
 Normal termination of Gaussian 16 at Fri Jan  3 10:19:57 2025.
